file 22081532 1654279407                                        
version 2
run Mobility_Aware_Cross_Layer_Routing_Approach_EAR_P2P-0-20220603-23:31:25-9124
attr configname Mobility_Aware_Cross_Layer_Routing_Approach_EAR_P2P
attr datetime 20220603-23:31:25
attr experiment Mobility_Aware_Cross_Layer_Routing_Approach_EAR_P2P
attr inifile omnetpp.ini
attr iterationvars ""
attr iterationvars2 $repetition=0
attr measurement ""
attr network Mobility_Aware_Cross_Layer_Routing_Approach_EAR_P2P_NW
attr processid 9124
attr repetition 0
attr replication #0
attr resultdir results
attr runnumber 0
attr seedset 0

vector 1  Mobility_Aware_Cross_Layer_Routing_Approach_EAR_P2P_NW.Mobilenode.wlan[0].mgmt  dataQueueLen:vector  ETV
attr interpolationmode  sample-hold
attr title  "data queue length, vector"
vector 11  Mobility_Aware_Cross_Layer_Routing_Approach_EAR_P2P_NW.Mobilenode.wlan[1].mgmt  dataQueueLen:vector  ETV
attr interpolationmode  sample-hold
attr title  "data queue length, vector"
vector 21  Mobility_Aware_Cross_Layer_Routing_Approach_EAR_P2P_NW.Mobilenode.wlan[2].mgmt  dataQueueLen:vector  ETV
attr interpolationmode  sample-hold
attr title  "data queue length, vector"
vector 31  Mobility_Aware_Cross_Layer_Routing_Approach_EAR_P2P_NW.Mobilenode.wlan[3].mgmt  dataQueueLen:vector  ETV
attr interpolationmode  sample-hold
attr title  "data queue length, vector"
vector 41  Mobility_Aware_Cross_Layer_Routing_Approach_EAR_P2P_NW.Mobilenode.wlan[4].mgmt  dataQueueLen:vector  ETV
attr interpolationmode  sample-hold
attr title  "data queue length, vector"
vector 51  Mobility_Aware_Cross_Layer_Routing_Approach_EAR_P2P_NW.Mobilenode.wlan[5].mgmt  dataQueueLen:vector  ETV
attr interpolationmode  sample-hold
attr title  "data queue length, vector"
vector 61  Mobility_Aware_Cross_Layer_Routing_Approach_EAR_P2P_NW.Mobilenode.wlan[6].mgmt  dataQueueLen:vector  ETV
attr interpolationmode  sample-hold
attr title  "data queue length, vector"
vector 71  Mobility_Aware_Cross_Layer_Routing_Approach_EAR_P2P_NW.Mobilenode.wlan[7].mgmt  dataQueueLen:vector  ETV
attr interpolationmode  sample-hold
attr title  "data queue length, vector"
vector 81  Mobility_Aware_Cross_Layer_Routing_Approach_EAR_P2P_NW.Mobilenode.wlan[8].mgmt  dataQueueLen:vector  ETV
attr interpolationmode  sample-hold
attr title  "data queue length, vector"
vector 91  Mobility_Aware_Cross_Layer_Routing_Approach_EAR_P2P_NW.Mobilenode.wlan[9].mgmt  dataQueueLen:vector  ETV
attr interpolationmode  sample-hold
attr title  "data queue length, vector"
vector 101  Mobility_Aware_Cross_Layer_Routing_Approach_EAR_P2P_NW.Mobilenode1.wlan[0].mgmt  dataQueueLen:vector  ETV
attr interpolationmode  sample-hold
attr title  "data queue length, vector"
vector 111  Mobility_Aware_Cross_Layer_Routing_Approach_EAR_P2P_NW.Mobilenode1.wlan[1].mgmt  dataQueueLen:vector  ETV
attr interpolationmode  sample-hold
attr title  "data queue length, vector"
vector 121  Mobility_Aware_Cross_Layer_Routing_Approach_EAR_P2P_NW.Mobilenode1.wlan[2].mgmt  dataQueueLen:vector  ETV
attr interpolationmode  sample-hold
attr title  "data queue length, vector"
vector 131  Mobility_Aware_Cross_Layer_Routing_Approach_EAR_P2P_NW.Mobilenode1.wlan[3].mgmt  dataQueueLen:vector  ETV
attr interpolationmode  sample-hold
attr title  "data queue length, vector"
vector 141  Mobility_Aware_Cross_Layer_Routing_Approach_EAR_P2P_NW.Mobilenode1.wlan[4].mgmt  dataQueueLen:vector  ETV
attr interpolationmode  sample-hold
attr title  "data queue length, vector"
vector 151  Mobility_Aware_Cross_Layer_Routing_Approach_EAR_P2P_NW.Mobilenode1.wlan[5].mgmt  dataQueueLen:vector  ETV
attr interpolationmode  sample-hold
attr title  "data queue length, vector"
vector 161  Mobility_Aware_Cross_Layer_Routing_Approach_EAR_P2P_NW.Mobilenode1.wlan[6].mgmt  dataQueueLen:vector  ETV
attr interpolationmode  sample-hold
attr title  "data queue length, vector"
vector 171  Mobility_Aware_Cross_Layer_Routing_Approach_EAR_P2P_NW.Mobilenode1.wlan[7].mgmt  dataQueueLen:vector  ETV
attr interpolationmode  sample-hold
attr title  "data queue length, vector"
vector 181  Mobility_Aware_Cross_Layer_Routing_Approach_EAR_P2P_NW.Mobilenode1.wlan[8].mgmt  dataQueueLen:vector  ETV
attr interpolationmode  sample-hold
attr title  "data queue length, vector"
vector 191  Mobility_Aware_Cross_Layer_Routing_Approach_EAR_P2P_NW.Mobilenode1.wlan[9].mgmt  dataQueueLen:vector  ETV
attr interpolationmode  sample-hold
attr title  "data queue length, vector"
vector 201  Mobility_Aware_Cross_Layer_Routing_Approach_EAR_P2P_NW.Mobilenode2.wlan[0].mgmt  dataQueueLen:vector  ETV
attr interpolationmode  sample-hold
attr title  "data queue length, vector"
vector 211  Mobility_Aware_Cross_Layer_Routing_Approach_EAR_P2P_NW.Mobilenode2.wlan[1].mgmt  dataQueueLen:vector  ETV
attr interpolationmode  sample-hold
attr title  "data queue length, vector"
vector 221  Mobility_Aware_Cross_Layer_Routing_Approach_EAR_P2P_NW.Mobilenode2.wlan[2].mgmt  dataQueueLen:vector  ETV
attr interpolationmode  sample-hold
attr title  "data queue length, vector"
vector 231  Mobility_Aware_Cross_Layer_Routing_Approach_EAR_P2P_NW.Mobilenode2.wlan[3].mgmt  dataQueueLen:vector  ETV
attr interpolationmode  sample-hold
attr title  "data queue length, vector"
vector 241  Mobility_Aware_Cross_Layer_Routing_Approach_EAR_P2P_NW.Mobilenode2.wlan[4].mgmt  dataQueueLen:vector  ETV
attr interpolationmode  sample-hold
attr title  "data queue length, vector"
vector 251  Mobility_Aware_Cross_Layer_Routing_Approach_EAR_P2P_NW.Mobilenode2.wlan[5].mgmt  dataQueueLen:vector  ETV
attr interpolationmode  sample-hold
attr title  "data queue length, vector"
vector 261  Mobility_Aware_Cross_Layer_Routing_Approach_EAR_P2P_NW.Mobilenode2.wlan[6].mgmt  dataQueueLen:vector  ETV
attr interpolationmode  sample-hold
attr title  "data queue length, vector"
vector 271  Mobility_Aware_Cross_Layer_Routing_Approach_EAR_P2P_NW.Mobilenode2.wlan[7].mgmt  dataQueueLen:vector  ETV
attr interpolationmode  sample-hold
attr title  "data queue length, vector"
vector 281  Mobility_Aware_Cross_Layer_Routing_Approach_EAR_P2P_NW.Mobilenode2.wlan[8].mgmt  dataQueueLen:vector  ETV
attr interpolationmode  sample-hold
attr title  "data queue length, vector"
vector 291  Mobility_Aware_Cross_Layer_Routing_Approach_EAR_P2P_NW.Mobilenode2.wlan[9].mgmt  dataQueueLen:vector  ETV
attr interpolationmode  sample-hold
attr title  "data queue length, vector"
vector 301  Mobility_Aware_Cross_Layer_Routing_Approach_EAR_P2P_NW.Mobilenode3.wlan[0].mgmt  dataQueueLen:vector  ETV
attr interpolationmode  sample-hold
attr title  "data queue length, vector"
vector 311  Mobility_Aware_Cross_Layer_Routing_Approach_EAR_P2P_NW.Mobilenode3.wlan[1].mgmt  dataQueueLen:vector  ETV
attr interpolationmode  sample-hold
attr title  "data queue length, vector"
vector 321  Mobility_Aware_Cross_Layer_Routing_Approach_EAR_P2P_NW.Mobilenode3.wlan[2].mgmt  dataQueueLen:vector  ETV
attr interpolationmode  sample-hold
attr title  "data queue length, vector"
vector 331  Mobility_Aware_Cross_Layer_Routing_Approach_EAR_P2P_NW.Mobilenode3.wlan[3].mgmt  dataQueueLen:vector  ETV
attr interpolationmode  sample-hold
attr title  "data queue length, vector"
vector 341  Mobility_Aware_Cross_Layer_Routing_Approach_EAR_P2P_NW.Mobilenode3.wlan[4].mgmt  dataQueueLen:vector  ETV
attr interpolationmode  sample-hold
attr title  "data queue length, vector"
vector 351  Mobility_Aware_Cross_Layer_Routing_Approach_EAR_P2P_NW.Mobilenode3.wlan[5].mgmt  dataQueueLen:vector  ETV
attr interpolationmode  sample-hold
attr title  "data queue length, vector"
vector 361  Mobility_Aware_Cross_Layer_Routing_Approach_EAR_P2P_NW.Mobilenode3.wlan[6].mgmt  dataQueueLen:vector  ETV
attr interpolationmode  sample-hold
attr title  "data queue length, vector"
vector 371  Mobility_Aware_Cross_Layer_Routing_Approach_EAR_P2P_NW.Mobilenode3.wlan[7].mgmt  dataQueueLen:vector  ETV
attr interpolationmode  sample-hold
attr title  "data queue length, vector"
vector 381  Mobility_Aware_Cross_Layer_Routing_Approach_EAR_P2P_NW.Mobilenode3.wlan[8].mgmt  dataQueueLen:vector  ETV
attr interpolationmode  sample-hold
attr title  "data queue length, vector"
vector 391  Mobility_Aware_Cross_Layer_Routing_Approach_EAR_P2P_NW.Mobilenode3.wlan[9].mgmt  dataQueueLen:vector  ETV
attr interpolationmode  sample-hold
attr title  "data queue length, vector"
vector 401  Mobility_Aware_Cross_Layer_Routing_Approach_EAR_P2P_NW.Mobilenode4.wlan[0].mgmt  dataQueueLen:vector  ETV
attr interpolationmode  sample-hold
attr title  "data queue length, vector"
vector 411  Mobility_Aware_Cross_Layer_Routing_Approach_EAR_P2P_NW.Mobilenode4.wlan[1].mgmt  dataQueueLen:vector  ETV
attr interpolationmode  sample-hold
attr title  "data queue length, vector"
vector 421  Mobility_Aware_Cross_Layer_Routing_Approach_EAR_P2P_NW.Mobilenode4.wlan[2].mgmt  dataQueueLen:vector  ETV
attr interpolationmode  sample-hold
attr title  "data queue length, vector"
vector 431  Mobility_Aware_Cross_Layer_Routing_Approach_EAR_P2P_NW.Mobilenode4.wlan[3].mgmt  dataQueueLen:vector  ETV
attr interpolationmode  sample-hold
attr title  "data queue length, vector"
vector 441  Mobility_Aware_Cross_Layer_Routing_Approach_EAR_P2P_NW.Mobilenode4.wlan[4].mgmt  dataQueueLen:vector  ETV
attr interpolationmode  sample-hold
attr title  "data queue length, vector"
vector 451  Mobility_Aware_Cross_Layer_Routing_Approach_EAR_P2P_NW.Mobilenode4.wlan[5].mgmt  dataQueueLen:vector  ETV
attr interpolationmode  sample-hold
attr title  "data queue length, vector"
vector 461  Mobility_Aware_Cross_Layer_Routing_Approach_EAR_P2P_NW.Mobilenode4.wlan[6].mgmt  dataQueueLen:vector  ETV
attr interpolationmode  sample-hold
attr title  "data queue length, vector"
vector 471  Mobility_Aware_Cross_Layer_Routing_Approach_EAR_P2P_NW.Mobilenode4.wlan[7].mgmt  dataQueueLen:vector  ETV
attr interpolationmode  sample-hold
attr title  "data queue length, vector"
vector 481  Mobility_Aware_Cross_Layer_Routing_Approach_EAR_P2P_NW.Mobilenode4.wlan[8].mgmt  dataQueueLen:vector  ETV
attr interpolationmode  sample-hold
attr title  "data queue length, vector"
vector 491  Mobility_Aware_Cross_Layer_Routing_Approach_EAR_P2P_NW.Mobilenode4.wlan[9].mgmt  dataQueueLen:vector  ETV
attr interpolationmode  sample-hold
attr title  "data queue length, vector"
vector 501  Mobility_Aware_Cross_Layer_Routing_Approach_EAR_P2P_NW.Mobilenode5.wlan[0].mgmt  dataQueueLen:vector  ETV
attr interpolationmode  sample-hold
attr title  "data queue length, vector"
vector 511  Mobility_Aware_Cross_Layer_Routing_Approach_EAR_P2P_NW.Mobilenode5.wlan[1].mgmt  dataQueueLen:vector  ETV
attr interpolationmode  sample-hold
attr title  "data queue length, vector"
vector 521  Mobility_Aware_Cross_Layer_Routing_Approach_EAR_P2P_NW.Mobilenode5.wlan[2].mgmt  dataQueueLen:vector  ETV
attr interpolationmode  sample-hold
attr title  "data queue length, vector"
vector 531  Mobility_Aware_Cross_Layer_Routing_Approach_EAR_P2P_NW.Mobilenode5.wlan[3].mgmt  dataQueueLen:vector  ETV
attr interpolationmode  sample-hold
attr title  "data queue length, vector"
vector 541  Mobility_Aware_Cross_Layer_Routing_Approach_EAR_P2P_NW.Mobilenode5.wlan[4].mgmt  dataQueueLen:vector  ETV
attr interpolationmode  sample-hold
attr title  "data queue length, vector"
vector 551  Mobility_Aware_Cross_Layer_Routing_Approach_EAR_P2P_NW.Mobilenode5.wlan[5].mgmt  dataQueueLen:vector  ETV
attr interpolationmode  sample-hold
attr title  "data queue length, vector"
vector 561  Mobility_Aware_Cross_Layer_Routing_Approach_EAR_P2P_NW.Mobilenode5.wlan[6].mgmt  dataQueueLen:vector  ETV
attr interpolationmode  sample-hold
attr title  "data queue length, vector"
vector 571  Mobility_Aware_Cross_Layer_Routing_Approach_EAR_P2P_NW.Mobilenode5.wlan[7].mgmt  dataQueueLen:vector  ETV
attr interpolationmode  sample-hold
attr title  "data queue length, vector"
vector 581  Mobility_Aware_Cross_Layer_Routing_Approach_EAR_P2P_NW.Mobilenode5.wlan[8].mgmt  dataQueueLen:vector  ETV
attr interpolationmode  sample-hold
attr title  "data queue length, vector"
vector 591  Mobility_Aware_Cross_Layer_Routing_Approach_EAR_P2P_NW.Mobilenode5.wlan[9].mgmt  dataQueueLen:vector  ETV
attr interpolationmode  sample-hold
attr title  "data queue length, vector"
vector 601  Mobility_Aware_Cross_Layer_Routing_Approach_EAR_P2P_NW.Mobilenode6.wlan[0].mgmt  dataQueueLen:vector  ETV
attr interpolationmode  sample-hold
attr title  "data queue length, vector"
vector 611  Mobility_Aware_Cross_Layer_Routing_Approach_EAR_P2P_NW.Mobilenode6.wlan[1].mgmt  dataQueueLen:vector  ETV
attr interpolationmode  sample-hold
attr title  "data queue length, vector"
vector 621  Mobility_Aware_Cross_Layer_Routing_Approach_EAR_P2P_NW.Mobilenode6.wlan[2].mgmt  dataQueueLen:vector  ETV
attr interpolationmode  sample-hold
attr title  "data queue length, vector"
vector 631  Mobility_Aware_Cross_Layer_Routing_Approach_EAR_P2P_NW.Mobilenode6.wlan[3].mgmt  dataQueueLen:vector  ETV
attr interpolationmode  sample-hold
attr title  "data queue length, vector"
vector 641  Mobility_Aware_Cross_Layer_Routing_Approach_EAR_P2P_NW.Mobilenode6.wlan[4].mgmt  dataQueueLen:vector  ETV
attr interpolationmode  sample-hold
attr title  "data queue length, vector"
vector 651  Mobility_Aware_Cross_Layer_Routing_Approach_EAR_P2P_NW.Mobilenode6.wlan[5].mgmt  dataQueueLen:vector  ETV
attr interpolationmode  sample-hold
attr title  "data queue length, vector"
vector 661  Mobility_Aware_Cross_Layer_Routing_Approach_EAR_P2P_NW.Mobilenode6.wlan[6].mgmt  dataQueueLen:vector  ETV
attr interpolationmode  sample-hold
attr title  "data queue length, vector"
vector 671  Mobility_Aware_Cross_Layer_Routing_Approach_EAR_P2P_NW.Mobilenode6.wlan[7].mgmt  dataQueueLen:vector  ETV
attr interpolationmode  sample-hold
attr title  "data queue length, vector"
vector 681  Mobility_Aware_Cross_Layer_Routing_Approach_EAR_P2P_NW.Mobilenode6.wlan[8].mgmt  dataQueueLen:vector  ETV
attr interpolationmode  sample-hold
attr title  "data queue length, vector"
vector 691  Mobility_Aware_Cross_Layer_Routing_Approach_EAR_P2P_NW.Mobilenode6.wlan[9].mgmt  dataQueueLen:vector  ETV
attr interpolationmode  sample-hold
attr title  "data queue length, vector"
vector 701  Mobility_Aware_Cross_Layer_Routing_Approach_EAR_P2P_NW.Mobilenode7.wlan[0].mgmt  dataQueueLen:vector  ETV
attr interpolationmode  sample-hold
attr title  "data queue length, vector"
vector 711  Mobility_Aware_Cross_Layer_Routing_Approach_EAR_P2P_NW.Mobilenode7.wlan[1].mgmt  dataQueueLen:vector  ETV
attr interpolationmode  sample-hold
attr title  "data queue length, vector"
vector 721  Mobility_Aware_Cross_Layer_Routing_Approach_EAR_P2P_NW.Mobilenode7.wlan[2].mgmt  dataQueueLen:vector  ETV
attr interpolationmode  sample-hold
attr title  "data queue length, vector"
vector 731  Mobility_Aware_Cross_Layer_Routing_Approach_EAR_P2P_NW.Mobilenode7.wlan[3].mgmt  dataQueueLen:vector  ETV
attr interpolationmode  sample-hold
attr title  "data queue length, vector"
vector 741  Mobility_Aware_Cross_Layer_Routing_Approach_EAR_P2P_NW.Mobilenode7.wlan[4].mgmt  dataQueueLen:vector  ETV
attr interpolationmode  sample-hold
attr title  "data queue length, vector"
vector 751  Mobility_Aware_Cross_Layer_Routing_Approach_EAR_P2P_NW.Mobilenode7.wlan[5].mgmt  dataQueueLen:vector  ETV
attr interpolationmode  sample-hold
attr title  "data queue length, vector"
vector 761  Mobility_Aware_Cross_Layer_Routing_Approach_EAR_P2P_NW.Mobilenode7.wlan[6].mgmt  dataQueueLen:vector  ETV
attr interpolationmode  sample-hold
attr title  "data queue length, vector"
vector 771  Mobility_Aware_Cross_Layer_Routing_Approach_EAR_P2P_NW.Mobilenode7.wlan[7].mgmt  dataQueueLen:vector  ETV
attr interpolationmode  sample-hold
attr title  "data queue length, vector"
vector 781  Mobility_Aware_Cross_Layer_Routing_Approach_EAR_P2P_NW.Mobilenode7.wlan[8].mgmt  dataQueueLen:vector  ETV
attr interpolationmode  sample-hold
attr title  "data queue length, vector"
vector 791  Mobility_Aware_Cross_Layer_Routing_Approach_EAR_P2P_NW.Mobilenode7.wlan[9].mgmt  dataQueueLen:vector  ETV
attr interpolationmode  sample-hold
attr title  "data queue length, vector"
vector 801  Mobility_Aware_Cross_Layer_Routing_Approach_EAR_P2P_NW.Mobilenode8.wlan[0].mgmt  dataQueueLen:vector  ETV
attr interpolationmode  sample-hold
attr title  "data queue length, vector"
vector 811  Mobility_Aware_Cross_Layer_Routing_Approach_EAR_P2P_NW.Mobilenode8.wlan[1].mgmt  dataQueueLen:vector  ETV
attr interpolationmode  sample-hold
attr title  "data queue length, vector"
vector 821  Mobility_Aware_Cross_Layer_Routing_Approach_EAR_P2P_NW.Mobilenode8.wlan[2].mgmt  dataQueueLen:vector  ETV
attr interpolationmode  sample-hold
attr title  "data queue length, vector"
vector 831  Mobility_Aware_Cross_Layer_Routing_Approach_EAR_P2P_NW.Mobilenode8.wlan[3].mgmt  dataQueueLen:vector  ETV
attr interpolationmode  sample-hold
attr title  "data queue length, vector"
vector 841  Mobility_Aware_Cross_Layer_Routing_Approach_EAR_P2P_NW.Mobilenode8.wlan[4].mgmt  dataQueueLen:vector  ETV
attr interpolationmode  sample-hold
attr title  "data queue length, vector"
vector 851  Mobility_Aware_Cross_Layer_Routing_Approach_EAR_P2P_NW.Mobilenode8.wlan[5].mgmt  dataQueueLen:vector  ETV
attr interpolationmode  sample-hold
attr title  "data queue length, vector"
vector 861  Mobility_Aware_Cross_Layer_Routing_Approach_EAR_P2P_NW.Mobilenode8.wlan[6].mgmt  dataQueueLen:vector  ETV
attr interpolationmode  sample-hold
attr title  "data queue length, vector"
vector 871  Mobility_Aware_Cross_Layer_Routing_Approach_EAR_P2P_NW.Mobilenode8.wlan[7].mgmt  dataQueueLen:vector  ETV
attr interpolationmode  sample-hold
attr title  "data queue length, vector"
vector 881  Mobility_Aware_Cross_Layer_Routing_Approach_EAR_P2P_NW.Mobilenode8.wlan[8].mgmt  dataQueueLen:vector  ETV
attr interpolationmode  sample-hold
attr title  "data queue length, vector"
vector 891  Mobility_Aware_Cross_Layer_Routing_Approach_EAR_P2P_NW.Mobilenode8.wlan[9].mgmt  dataQueueLen:vector  ETV
attr interpolationmode  sample-hold
attr title  "data queue length, vector"
vector 901  Mobility_Aware_Cross_Layer_Routing_Approach_EAR_P2P_NW.Mobilenode9.wlan[0].mgmt  dataQueueLen:vector  ETV
attr interpolationmode  sample-hold
attr title  "data queue length, vector"
vector 911  Mobility_Aware_Cross_Layer_Routing_Approach_EAR_P2P_NW.Mobilenode9.wlan[1].mgmt  dataQueueLen:vector  ETV
attr interpolationmode  sample-hold
attr title  "data queue length, vector"
vector 921  Mobility_Aware_Cross_Layer_Routing_Approach_EAR_P2P_NW.Mobilenode9.wlan[2].mgmt  dataQueueLen:vector  ETV
attr interpolationmode  sample-hold
attr title  "data queue length, vector"
vector 931  Mobility_Aware_Cross_Layer_Routing_Approach_EAR_P2P_NW.Mobilenode9.wlan[3].mgmt  dataQueueLen:vector  ETV
attr interpolationmode  sample-hold
attr title  "data queue length, vector"
vector 941  Mobility_Aware_Cross_Layer_Routing_Approach_EAR_P2P_NW.Mobilenode9.wlan[4].mgmt  dataQueueLen:vector  ETV
attr interpolationmode  sample-hold
attr title  "data queue length, vector"
vector 951  Mobility_Aware_Cross_Layer_Routing_Approach_EAR_P2P_NW.Mobilenode9.wlan[5].mgmt  dataQueueLen:vector  ETV
attr interpolationmode  sample-hold
attr title  "data queue length, vector"
vector 961  Mobility_Aware_Cross_Layer_Routing_Approach_EAR_P2P_NW.Mobilenode9.wlan[6].mgmt  dataQueueLen:vector  ETV
attr interpolationmode  sample-hold
attr title  "data queue length, vector"
vector 971  Mobility_Aware_Cross_Layer_Routing_Approach_EAR_P2P_NW.Mobilenode9.wlan[7].mgmt  dataQueueLen:vector  ETV
attr interpolationmode  sample-hold
attr title  "data queue length, vector"
vector 981  Mobility_Aware_Cross_Layer_Routing_Approach_EAR_P2P_NW.Mobilenode9.wlan[8].mgmt  dataQueueLen:vector  ETV
attr interpolationmode  sample-hold
attr title  "data queue length, vector"
vector 991  Mobility_Aware_Cross_Layer_Routing_Approach_EAR_P2P_NW.Mobilenode9.wlan[9].mgmt  dataQueueLen:vector  ETV
attr interpolationmode  sample-hold
attr title  "data queue length, vector"
vector 1001  Mobility_Aware_Cross_Layer_Routing_Approach_EAR_P2P_NW.Mobilenode10.wlan[0].mgmt  dataQueueLen:vector  ETV
attr interpolationmode  sample-hold
attr title  "data queue length, vector"
vector 1011  Mobility_Aware_Cross_Layer_Routing_Approach_EAR_P2P_NW.Mobilenode10.wlan[1].mgmt  dataQueueLen:vector  ETV
attr interpolationmode  sample-hold
attr title  "data queue length, vector"
vector 1021  Mobility_Aware_Cross_Layer_Routing_Approach_EAR_P2P_NW.Mobilenode10.wlan[2].mgmt  dataQueueLen:vector  ETV
attr interpolationmode  sample-hold
attr title  "data queue length, vector"
vector 1031  Mobility_Aware_Cross_Layer_Routing_Approach_EAR_P2P_NW.Mobilenode10.wlan[3].mgmt  dataQueueLen:vector  ETV
attr interpolationmode  sample-hold
attr title  "data queue length, vector"
vector 1041  Mobility_Aware_Cross_Layer_Routing_Approach_EAR_P2P_NW.Mobilenode10.wlan[4].mgmt  dataQueueLen:vector  ETV
attr interpolationmode  sample-hold
attr title  "data queue length, vector"
vector 1051  Mobility_Aware_Cross_Layer_Routing_Approach_EAR_P2P_NW.Mobilenode10.wlan[5].mgmt  dataQueueLen:vector  ETV
attr interpolationmode  sample-hold
attr title  "data queue length, vector"
vector 1061  Mobility_Aware_Cross_Layer_Routing_Approach_EAR_P2P_NW.Mobilenode10.wlan[6].mgmt  dataQueueLen:vector  ETV
attr interpolationmode  sample-hold
attr title  "data queue length, vector"
vector 1071  Mobility_Aware_Cross_Layer_Routing_Approach_EAR_P2P_NW.Mobilenode10.wlan[7].mgmt  dataQueueLen:vector  ETV
attr interpolationmode  sample-hold
attr title  "data queue length, vector"
vector 1081  Mobility_Aware_Cross_Layer_Routing_Approach_EAR_P2P_NW.Mobilenode10.wlan[8].mgmt  dataQueueLen:vector  ETV
attr interpolationmode  sample-hold
attr title  "data queue length, vector"
vector 1091  Mobility_Aware_Cross_Layer_Routing_Approach_EAR_P2P_NW.Mobilenode10.wlan[9].mgmt  dataQueueLen:vector  ETV
attr interpolationmode  sample-hold
attr title  "data queue length, vector"
vector 1101  Mobility_Aware_Cross_Layer_Routing_Approach_EAR_P2P_NW.Mobilenode11.wlan[0].mgmt  dataQueueLen:vector  ETV
attr interpolationmode  sample-hold
attr title  "data queue length, vector"
vector 1111  Mobility_Aware_Cross_Layer_Routing_Approach_EAR_P2P_NW.Mobilenode11.wlan[1].mgmt  dataQueueLen:vector  ETV
attr interpolationmode  sample-hold
attr title  "data queue length, vector"
vector 1121  Mobility_Aware_Cross_Layer_Routing_Approach_EAR_P2P_NW.Mobilenode11.wlan[2].mgmt  dataQueueLen:vector  ETV
attr interpolationmode  sample-hold
attr title  "data queue length, vector"
vector 1131  Mobility_Aware_Cross_Layer_Routing_Approach_EAR_P2P_NW.Mobilenode11.wlan[3].mgmt  dataQueueLen:vector  ETV
attr interpolationmode  sample-hold
attr title  "data queue length, vector"
vector 1141  Mobility_Aware_Cross_Layer_Routing_Approach_EAR_P2P_NW.Mobilenode11.wlan[4].mgmt  dataQueueLen:vector  ETV
attr interpolationmode  sample-hold
attr title  "data queue length, vector"
vector 1151  Mobility_Aware_Cross_Layer_Routing_Approach_EAR_P2P_NW.Mobilenode11.wlan[5].mgmt  dataQueueLen:vector  ETV
attr interpolationmode  sample-hold
attr title  "data queue length, vector"
vector 1161  Mobility_Aware_Cross_Layer_Routing_Approach_EAR_P2P_NW.Mobilenode11.wlan[6].mgmt  dataQueueLen:vector  ETV
attr interpolationmode  sample-hold
attr title  "data queue length, vector"
vector 1171  Mobility_Aware_Cross_Layer_Routing_Approach_EAR_P2P_NW.Mobilenode11.wlan[7].mgmt  dataQueueLen:vector  ETV
attr interpolationmode  sample-hold
attr title  "data queue length, vector"
vector 1181  Mobility_Aware_Cross_Layer_Routing_Approach_EAR_P2P_NW.Mobilenode11.wlan[8].mgmt  dataQueueLen:vector  ETV
attr interpolationmode  sample-hold
attr title  "data queue length, vector"
vector 1191  Mobility_Aware_Cross_Layer_Routing_Approach_EAR_P2P_NW.Mobilenode11.wlan[9].mgmt  dataQueueLen:vector  ETV
attr interpolationmode  sample-hold
attr title  "data queue length, vector"
vector 1201  Mobility_Aware_Cross_Layer_Routing_Approach_EAR_P2P_NW.Mobilenode12.wlan[0].mgmt  dataQueueLen:vector  ETV
attr interpolationmode  sample-hold
attr title  "data queue length, vector"
vector 1211  Mobility_Aware_Cross_Layer_Routing_Approach_EAR_P2P_NW.Mobilenode12.wlan[1].mgmt  dataQueueLen:vector  ETV
attr interpolationmode  sample-hold
attr title  "data queue length, vector"
vector 1221  Mobility_Aware_Cross_Layer_Routing_Approach_EAR_P2P_NW.Mobilenode12.wlan[2].mgmt  dataQueueLen:vector  ETV
attr interpolationmode  sample-hold
attr title  "data queue length, vector"
vector 1231  Mobility_Aware_Cross_Layer_Routing_Approach_EAR_P2P_NW.Mobilenode12.wlan[3].mgmt  dataQueueLen:vector  ETV
attr interpolationmode  sample-hold
attr title  "data queue length, vector"
vector 1241  Mobility_Aware_Cross_Layer_Routing_Approach_EAR_P2P_NW.Mobilenode12.wlan[4].mgmt  dataQueueLen:vector  ETV
attr interpolationmode  sample-hold
attr title  "data queue length, vector"
vector 1251  Mobility_Aware_Cross_Layer_Routing_Approach_EAR_P2P_NW.Mobilenode12.wlan[5].mgmt  dataQueueLen:vector  ETV
attr interpolationmode  sample-hold
attr title  "data queue length, vector"
vector 1261  Mobility_Aware_Cross_Layer_Routing_Approach_EAR_P2P_NW.Mobilenode12.wlan[6].mgmt  dataQueueLen:vector  ETV
attr interpolationmode  sample-hold
attr title  "data queue length, vector"
vector 1271  Mobility_Aware_Cross_Layer_Routing_Approach_EAR_P2P_NW.Mobilenode12.wlan[7].mgmt  dataQueueLen:vector  ETV
attr interpolationmode  sample-hold
attr title  "data queue length, vector"
vector 1281  Mobility_Aware_Cross_Layer_Routing_Approach_EAR_P2P_NW.Mobilenode12.wlan[8].mgmt  dataQueueLen:vector  ETV
attr interpolationmode  sample-hold
attr title  "data queue length, vector"
vector 1291  Mobility_Aware_Cross_Layer_Routing_Approach_EAR_P2P_NW.Mobilenode12.wlan[9].mgmt  dataQueueLen:vector  ETV
attr interpolationmode  sample-hold
attr title  "data queue length, vector"
vector 1301  Mobility_Aware_Cross_Layer_Routing_Approach_EAR_P2P_NW.Mobilenode13.wlan[0].mgmt  dataQueueLen:vector  ETV
attr interpolationmode  sample-hold
attr title  "data queue length, vector"
vector 1311  Mobility_Aware_Cross_Layer_Routing_Approach_EAR_P2P_NW.Mobilenode13.wlan[1].mgmt  dataQueueLen:vector  ETV
attr interpolationmode  sample-hold
attr title  "data queue length, vector"
vector 1321  Mobility_Aware_Cross_Layer_Routing_Approach_EAR_P2P_NW.Mobilenode13.wlan[2].mgmt  dataQueueLen:vector  ETV
attr interpolationmode  sample-hold
attr title  "data queue length, vector"
vector 1331  Mobility_Aware_Cross_Layer_Routing_Approach_EAR_P2P_NW.Mobilenode13.wlan[3].mgmt  dataQueueLen:vector  ETV
attr interpolationmode  sample-hold
attr title  "data queue length, vector"
vector 1341  Mobility_Aware_Cross_Layer_Routing_Approach_EAR_P2P_NW.Mobilenode13.wlan[4].mgmt  dataQueueLen:vector  ETV
attr interpolationmode  sample-hold
attr title  "data queue length, vector"
vector 1351  Mobility_Aware_Cross_Layer_Routing_Approach_EAR_P2P_NW.Mobilenode13.wlan[5].mgmt  dataQueueLen:vector  ETV
attr interpolationmode  sample-hold
attr title  "data queue length, vector"
vector 1361  Mobility_Aware_Cross_Layer_Routing_Approach_EAR_P2P_NW.Mobilenode13.wlan[6].mgmt  dataQueueLen:vector  ETV
attr interpolationmode  sample-hold
attr title  "data queue length, vector"
vector 1371  Mobility_Aware_Cross_Layer_Routing_Approach_EAR_P2P_NW.Mobilenode13.wlan[7].mgmt  dataQueueLen:vector  ETV
attr interpolationmode  sample-hold
attr title  "data queue length, vector"
vector 1381  Mobility_Aware_Cross_Layer_Routing_Approach_EAR_P2P_NW.Mobilenode13.wlan[8].mgmt  dataQueueLen:vector  ETV
attr interpolationmode  sample-hold
attr title  "data queue length, vector"
vector 1391  Mobility_Aware_Cross_Layer_Routing_Approach_EAR_P2P_NW.Mobilenode13.wlan[9].mgmt  dataQueueLen:vector  ETV
attr interpolationmode  sample-hold
attr title  "data queue length, vector"
vector 1401  Mobility_Aware_Cross_Layer_Routing_Approach_EAR_P2P_NW.Mobilenode14.wlan[0].mgmt  dataQueueLen:vector  ETV
attr interpolationmode  sample-hold
attr title  "data queue length, vector"
vector 1411  Mobility_Aware_Cross_Layer_Routing_Approach_EAR_P2P_NW.Mobilenode14.wlan[1].mgmt  dataQueueLen:vector  ETV
attr interpolationmode  sample-hold
attr title  "data queue length, vector"
vector 1421  Mobility_Aware_Cross_Layer_Routing_Approach_EAR_P2P_NW.Mobilenode14.wlan[2].mgmt  dataQueueLen:vector  ETV
attr interpolationmode  sample-hold
attr title  "data queue length, vector"
vector 1431  Mobility_Aware_Cross_Layer_Routing_Approach_EAR_P2P_NW.Mobilenode14.wlan[3].mgmt  dataQueueLen:vector  ETV
attr interpolationmode  sample-hold
attr title  "data queue length, vector"
vector 1441  Mobility_Aware_Cross_Layer_Routing_Approach_EAR_P2P_NW.Mobilenode14.wlan[4].mgmt  dataQueueLen:vector  ETV
attr interpolationmode  sample-hold
attr title  "data queue length, vector"
vector 1451  Mobility_Aware_Cross_Layer_Routing_Approach_EAR_P2P_NW.Mobilenode14.wlan[5].mgmt  dataQueueLen:vector  ETV
attr interpolationmode  sample-hold
attr title  "data queue length, vector"
vector 1461  Mobility_Aware_Cross_Layer_Routing_Approach_EAR_P2P_NW.Mobilenode14.wlan[6].mgmt  dataQueueLen:vector  ETV
attr interpolationmode  sample-hold
attr title  "data queue length, vector"
vector 1471  Mobility_Aware_Cross_Layer_Routing_Approach_EAR_P2P_NW.Mobilenode14.wlan[7].mgmt  dataQueueLen:vector  ETV
attr interpolationmode  sample-hold
attr title  "data queue length, vector"
vector 1481  Mobility_Aware_Cross_Layer_Routing_Approach_EAR_P2P_NW.Mobilenode14.wlan[8].mgmt  dataQueueLen:vector  ETV
attr interpolationmode  sample-hold
attr title  "data queue length, vector"
vector 1491  Mobility_Aware_Cross_Layer_Routing_Approach_EAR_P2P_NW.Mobilenode14.wlan[9].mgmt  dataQueueLen:vector  ETV
attr interpolationmode  sample-hold
attr title  "data queue length, vector"
vector 1501  Mobility_Aware_Cross_Layer_Routing_Approach_EAR_P2P_NW.Mobilenode15.wlan[0].mgmt  dataQueueLen:vector  ETV
attr interpolationmode  sample-hold
attr title  "data queue length, vector"