version 2
run Mobility_Aware_Cross_Layer_Routing_Approach-0-20220228-11:29:15-3524
attr configname Mobility_Aware_Cross_Layer_Routing_Approach
attr datetime 20220228-11:29:15
attr experiment Mobility_Aware_Cross_Layer_Routing_Approach
attr inifile omnetpp.ini
attr iterationvars ""
attr iterationvars2 $repetition=0
attr measurement ""
attr network Mobility_Aware_Cross_Layer_Routing_Approach_MACARON_NW
attr processid 3524
attr repetition 0
attr replication #0
attr resultdir results
attr runnumber 0
attr seedset 0

vector 0  Mobility_Aware_Cross_Layer_Routing_Approach_MACARON_NW.Mobilenode.wlan[0].mgmt  dataQueueLen:vector  ETV
attr interpolationmode  sample-hold
attr title  "data queue length, vector"
vector 10  Mobility_Aware_Cross_Layer_Routing_Approach_MACARON_NW.Mobilenode.wlan[1].mgmt  dataQueueLen:vector  ETV
attr interpolationmode  sample-hold
attr title  "data queue length, vector"
vector 20  Mobility_Aware_Cross_Layer_Routing_Approach_MACARON_NW.Mobilenode.wlan[2].mgmt  dataQueueLen:vector  ETV
attr interpolationmode  sample-hold
attr title  "data queue length, vector"
vector 30  Mobility_Aware_Cross_Layer_Routing_Approach_MACARON_NW.Mobilenode.wlan[3].mgmt  dataQueueLen:vector  ETV
attr interpolationmode  sample-hold
attr title  "data queue length, vector"
vector 40  Mobility_Aware_Cross_Layer_Routing_Approach_MACARON_NW.Mobilenode.wlan[4].mgmt  dataQueueLen:vector  ETV
attr interpolationmode  sample-hold
attr title  "data queue length, vector"
vector 50  Mobility_Aware_Cross_Layer_Routing_Approach_MACARON_NW.Mobilenode.wlan[5].mgmt  dataQueueLen:vector  ETV
attr interpolationmode  sample-hold
attr title  "data queue length, vector"
vector 60  Mobility_Aware_Cross_Layer_Routing_Approach_MACARON_NW.Mobilenode.wlan[6].mgmt  dataQueueLen:vector  ETV
attr interpolationmode  sample-hold
attr title  "data queue length, vector"
vector 70  Mobility_Aware_Cross_Layer_Routing_Approach_MACARON_NW.Mobilenode.wlan[7].mgmt  dataQueueLen:vector  ETV
attr interpolationmode  sample-hold
attr title  "data queue length, vector"
vector 80  Mobility_Aware_Cross_Layer_Routing_Approach_MACARON_NW.Mobilenode.wlan[8].mgmt  dataQueueLen:vector  ETV
attr interpolationmode  sample-hold
attr title  "data queue length, vector"
vector 90  Mobility_Aware_Cross_Layer_Routing_Approach_MACARON_NW.Mobilenode.wlan[9].mgmt  dataQueueLen:vector  ETV
attr interpolationmode  sample-hold
attr title  "data queue length, vector"
vector 100  Mobility_Aware_Cross_Layer_Routing_Approach_MACARON_NW.Mobilenode1.wlan[0].mgmt  dataQueueLen:vector  ETV
attr interpolationmode  sample-hold
attr title  "data queue length, vector"
vector 110  Mobility_Aware_Cross_Layer_Routing_Approach_MACARON_NW.Mobilenode1.wlan[1].mgmt  dataQueueLen:vector  ETV
attr interpolationmode  sample-hold
attr title  "data queue length, vector"
vector 120  Mobility_Aware_Cross_Layer_Routing_Approach_MACARON_NW.Mobilenode1.wlan[2].mgmt  dataQueueLen:vector  ETV
attr interpolationmode  sample-hold
attr title  "data queue length, vector"
vector 130  Mobility_Aware_Cross_Layer_Routing_Approach_MACARON_NW.Mobilenode1.wlan[3].mgmt  dataQueueLen:vector  ETV
attr interpolationmode  sample-hold
attr title  "data queue length, vector"
vector 140  Mobility_Aware_Cross_Layer_Routing_Approach_MACARON_NW.Mobilenode1.wlan[4].mgmt  dataQueueLen:vector  ETV
attr interpolationmode  sample-hold
attr title  "data queue length, vector"
vector 150  Mobility_Aware_Cross_Layer_Routing_Approach_MACARON_NW.Mobilenode1.wlan[5].mgmt  dataQueueLen:vector  ETV
attr interpolationmode  sample-hold
attr title  "data queue length, vector"
vector 160  Mobility_Aware_Cross_Layer_Routing_Approach_MACARON_NW.Mobilenode1.wlan[6].mgmt  dataQueueLen:vector  ETV
attr interpolationmode  sample-hold
attr title  "data queue length, vector"
vector 170  Mobility_Aware_Cross_Layer_Routing_Approach_MACARON_NW.Mobilenode1.wlan[7].mgmt  dataQueueLen:vector  ETV
attr interpolationmode  sample-hold
attr title  "data queue length, vector"
vector 180  Mobility_Aware_Cross_Layer_Routing_Approach_MACARON_NW.Mobilenode1.wlan[8].mgmt  dataQueueLen:vector  ETV
attr interpolationmode  sample-hold
attr title  "data queue length, vector"
vector 190  Mobility_Aware_Cross_Layer_Routing_Approach_MACARON_NW.Mobilenode1.wlan[9].mgmt  dataQueueLen:vector  ETV
attr interpolationmode  sample-hold
attr title  "data queue length, vector"
vector 200  Mobility_Aware_Cross_Layer_Routing_Approach_MACARON_NW.Mobilenode2.wlan[0].mgmt  dataQueueLen:vector  ETV
attr interpolationmode  sample-hold
attr title  "data queue length, vector"
vector 210  Mobility_Aware_Cross_Layer_Routing_Approach_MACARON_NW.Mobilenode2.wlan[1].mgmt  dataQueueLen:vector  ETV
attr interpolationmode  sample-hold
attr title  "data queue length, vector"
vector 220  Mobility_Aware_Cross_Layer_Routing_Approach_MACARON_NW.Mobilenode2.wlan[2].mgmt  dataQueueLen:vector  ETV
attr interpolationmode  sample-hold
attr title  "data queue length, vector"
vector 230  Mobility_Aware_Cross_Layer_Routing_Approach_MACARON_NW.Mobilenode2.wlan[3].mgmt  dataQueueLen:vector  ETV
attr interpolationmode  sample-hold
attr title  "data queue length, vector"
vector 240  Mobility_Aware_Cross_Layer_Routing_Approach_MACARON_NW.Mobilenode2.wlan[4].mgmt  dataQueueLen:vector  ETV
attr interpolationmode  sample-hold
attr title  "data queue length, vector"
vector 250  Mobility_Aware_Cross_Layer_Routing_Approach_MACARON_NW.Mobilenode2.wlan[5].mgmt  dataQueueLen:vector  ETV
attr interpolationmode  sample-hold
attr title  "data queue length, vector"
vector 260  Mobility_Aware_Cross_Layer_Routing_Approach_MACARON_NW.Mobilenode2.wlan[6].mgmt  dataQueueLen:vector  ETV
attr interpolationmode  sample-hold
attr title  "data queue length, vector"
vector 270  Mobility_Aware_Cross_Layer_Routing_Approach_MACARON_NW.Mobilenode2.wlan[7].mgmt  dataQueueLen:vector  ETV
attr interpolationmode  sample-hold
attr title  "data queue length, vector"
vector 280  Mobility_Aware_Cross_Layer_Routing_Approach_MACARON_NW.Mobilenode2.wlan[8].mgmt  dataQueueLen:vector  ETV
attr interpolationmode  sample-hold
attr title  "data queue length, vector"
vector 290  Mobility_Aware_Cross_Layer_Routing_Approach_MACARON_NW.Mobilenode2.wlan[9].mgmt  dataQueueLen:vector  ETV
attr interpolationmode  sample-hold
attr title  "data queue length, vector"
vector 300  Mobility_Aware_Cross_Layer_Routing_Approach_MACARON_NW.Mobilenode3.wlan[0].mgmt  dataQueueLen:vector  ETV
attr interpolationmode  sample-hold
attr title  "data queue length, vector"
vector 310  Mobility_Aware_Cross_Layer_Routing_Approach_MACARON_NW.Mobilenode3.wlan[1].mgmt  dataQueueLen:vector  ETV
attr interpolationmode  sample-hold
attr title  "data queue length, vector"
vector 320  Mobility_Aware_Cross_Layer_Routing_Approach_MACARON_NW.Mobilenode3.wlan[2].mgmt  dataQueueLen:vector  ETV
attr interpolationmode  sample-hold
attr title  "data queue length, vector"
vector 330  Mobility_Aware_Cross_Layer_Routing_Approach_MACARON_NW.Mobilenode3.wlan[3].mgmt  dataQueueLen:vector  ETV
attr interpolationmode  sample-hold
attr title  "data queue length, vector"
vector 340  Mobility_Aware_Cross_Layer_Routing_Approach_MACARON_NW.Mobilenode3.wlan[4].mgmt  dataQueueLen:vector  ETV
attr interpolationmode  sample-hold
attr title  "data queue length, vector"
vector 350  Mobility_Aware_Cross_Layer_Routing_Approach_MACARON_NW.Mobilenode3.wlan[5].mgmt  dataQueueLen:vector  ETV
attr interpolationmode  sample-hold
attr title  "data queue length, vector"
vector 360  Mobility_Aware_Cross_Layer_Routing_Approach_MACARON_NW.Mobilenode3.wlan[6].mgmt  dataQueueLen:vector  ETV
attr interpolationmode  sample-hold
attr title  "data queue length, vector"
vector 370  Mobility_Aware_Cross_Layer_Routing_Approach_MACARON_NW.Mobilenode3.wlan[7].mgmt  dataQueueLen:vector  ETV
attr interpolationmode  sample-hold
attr title  "data queue length, vector"
vector 380  Mobility_Aware_Cross_Layer_Routing_Approach_MACARON_NW.Mobilenode3.wlan[8].mgmt  dataQueueLen:vector  ETV
attr interpolationmode  sample-hold
attr title  "data queue length, vector"
vector 390  Mobility_Aware_Cross_Layer_Routing_Approach_MACARON_NW.Mobilenode3.wlan[9].mgmt  dataQueueLen:vector  ETV
attr interpolationmode  sample-hold
attr title  "data queue length, vector"
vector 400  Mobility_Aware_Cross_Layer_Routing_Approach_MACARON_NW.Mobilenode4.wlan[0].mgmt  dataQueueLen:vector  ETV
attr interpolationmode  sample-hold
attr title  "data queue length, vector"
vector 410  Mobility_Aware_Cross_Layer_Routing_Approach_MACARON_NW.Mobilenode4.wlan[1].mgmt  dataQueueLen:vector  ETV
attr interpolationmode  sample-hold
attr title  "data queue length, vector"
vector 420  Mobility_Aware_Cross_Layer_Routing_Approach_MACARON_NW.Mobilenode4.wlan[2].mgmt  dataQueueLen:vector  ETV
attr interpolationmode  sample-hold
attr title  "data queue length, vector"
vector 430  Mobility_Aware_Cross_Layer_Routing_Approach_MACARON_NW.Mobilenode4.wlan[3].mgmt  dataQueueLen:vector  ETV
attr interpolationmode  sample-hold
attr title  "data queue length, vector"
vector 440  Mobility_Aware_Cross_Layer_Routing_Approach_MACARON_NW.Mobilenode4.wlan[4].mgmt  dataQueueLen:vector  ETV
attr interpolationmode  sample-hold
attr title  "data queue length, vector"
vector 450  Mobility_Aware_Cross_Layer_Routing_Approach_MACARON_NW.Mobilenode4.wlan[5].mgmt  dataQueueLen:vector  ETV
attr interpolationmode  sample-hold
attr title  "data queue length, vector"
vector 460  Mobility_Aware_Cross_Layer_Routing_Approach_MACARON_NW.Mobilenode4.wlan[6].mgmt  dataQueueLen:vector  ETV
attr interpolationmode  sample-hold
attr title  "data queue length, vector"
vector 470  Mobility_Aware_Cross_Layer_Routing_Approach_MACARON_NW.Mobilenode4.wlan[7].mgmt  dataQueueLen:vector  ETV
attr interpolationmode  sample-hold
attr title  "data queue length, vector"
vector 480  Mobility_Aware_Cross_Layer_Routing_Approach_MACARON_NW.Mobilenode4.wlan[8].mgmt  dataQueueLen:vector  ETV
attr interpolationmode  sample-hold
attr title  "data queue length, vector"
vector 490  Mobility_Aware_Cross_Layer_Routing_Approach_MACARON_NW.Mobilenode4.wlan[9].mgmt  dataQueueLen:vector  ETV
attr interpolationmode  sample-hold
attr title  "data queue length, vector"
vector 500  Mobility_Aware_Cross_Layer_Routing_Approach_MACARON_NW.Mobilenode5.wlan[0].mgmt  dataQueueLen:vector  ETV
attr interpolationmode  sample-hold
attr title  "data queue length, vector"
vector 510  Mobility_Aware_Cross_Layer_Routing_Approach_MACARON_NW.Mobilenode5.wlan[1].mgmt  dataQueueLen:vector  ETV
attr interpolationmode  sample-hold
attr title  "data queue length, vector"
vector 520  Mobility_Aware_Cross_Layer_Routing_Approach_MACARON_NW.Mobilenode5.wlan[2].mgmt  dataQueueLen:vector  ETV
attr interpolationmode  sample-hold
attr title  "data queue length, vector"
vector 530  Mobility_Aware_Cross_Layer_Routing_Approach_MACARON_NW.Mobilenode5.wlan[3].mgmt  dataQueueLen:vector  ETV
attr interpolationmode  sample-hold
attr title  "data queue length, vector"
vector 540  Mobility_Aware_Cross_Layer_Routing_Approach_MACARON_NW.Mobilenode5.wlan[4].mgmt  dataQueueLen:vector  ETV
attr interpolationmode  sample-hold
attr title  "data queue length, vector"
vector 550  Mobility_Aware_Cross_Layer_Routing_Approach_MACARON_NW.Mobilenode5.wlan[5].mgmt  dataQueueLen:vector  ETV
attr interpolationmode  sample-hold
attr title  "data queue length, vector"
vector 560  Mobility_Aware_Cross_Layer_Routing_Approach_MACARON_NW.Mobilenode5.wlan[6].mgmt  dataQueueLen:vector  ETV
attr interpolationmode  sample-hold
attr title  "data queue length, vector"
vector 570  Mobility_Aware_Cross_Layer_Routing_Approach_MACARON_NW.Mobilenode5.wlan[7].mgmt  dataQueueLen:vector  ETV
attr interpolationmode  sample-hold
attr title  "data queue length, vector"
vector 580  Mobility_Aware_Cross_Layer_Routing_Approach_MACARON_NW.Mobilenode5.wlan[8].mgmt  dataQueueLen:vector  ETV
attr interpolationmode  sample-hold
attr title  "data queue length, vector"
vector 590  Mobility_Aware_Cross_Layer_Routing_Approach_MACARON_NW.Mobilenode5.wlan[9].mgmt  dataQueueLen:vector  ETV
attr interpolationmode  sample-hold
attr title  "data queue length, vector"
vector 600  Mobility_Aware_Cross_Layer_Routing_Approach_MACARON_NW.Mobilenode6.wlan[0].mgmt  dataQueueLen:vector  ETV
attr interpolationmode  sample-hold
attr title  "data queue length, vector"
vector 610  Mobility_Aware_Cross_Layer_Routing_Approach_MACARON_NW.Mobilenode6.wlan[1].mgmt  dataQueueLen:vector  ETV
attr interpolationmode  sample-hold
attr title  "data queue length, vector"
vector 620  Mobility_Aware_Cross_Layer_Routing_Approach_MACARON_NW.Mobilenode6.wlan[2].mgmt  dataQueueLen:vector  ETV
attr interpolationmode  sample-hold
attr title  "data queue length, vector"
vector 630  Mobility_Aware_Cross_Layer_Routing_Approach_MACARON_NW.Mobilenode6.wlan[3].mgmt  dataQueueLen:vector  ETV
attr interpolationmode  sample-hold
attr title  "data queue length, vector"
vector 640  Mobility_Aware_Cross_Layer_Routing_Approach_MACARON_NW.Mobilenode6.wlan[4].mgmt  dataQueueLen:vector  ETV
attr interpolationmode  sample-hold
attr title  "data queue length, vector"
vector 650  Mobility_Aware_Cross_Layer_Routing_Approach_MACARON_NW.Mobilenode6.wlan[5].mgmt  dataQueueLen:vector  ETV
attr interpolationmode  sample-hold
attr title  "data queue length, vector"
vector 660  Mobility_Aware_Cross_Layer_Routing_Approach_MACARON_NW.Mobilenode6.wlan[6].mgmt  dataQueueLen:vector  ETV
attr interpolationmode  sample-hold
attr title  "data queue length, vector"
vector 670  Mobility_Aware_Cross_Layer_Routing_Approach_MACARON_NW.Mobilenode6.wlan[7].mgmt  dataQueueLen:vector  ETV
attr interpolationmode  sample-hold
attr title  "data queue length, vector"
vector 680  Mobility_Aware_Cross_Layer_Routing_Approach_MACARON_NW.Mobilenode6.wlan[8].mgmt  dataQueueLen:vector  ETV
attr interpolationmode  sample-hold
attr title  "data queue length, vector"
vector 690  Mobility_Aware_Cross_Layer_Routing_Approach_MACARON_NW.Mobilenode6.wlan[9].mgmt  dataQueueLen:vector  ETV
attr interpolationmode  sample-hold
attr title  "data queue length, vector"
vector 700  Mobility_Aware_Cross_Layer_Routing_Approach_MACARON_NW.Mobilenode7.wlan[0].mgmt  dataQueueLen:vector  ETV
attr interpolationmode  sample-hold
attr title  "data queue length, vector"
vector 710  Mobility_Aware_Cross_Layer_Routing_Approach_MACARON_NW.Mobilenode7.wlan[1].mgmt  dataQueueLen:vector  ETV
attr interpolationmode  sample-hold
attr title  "data queue length, vector"
vector 720  Mobility_Aware_Cross_Layer_Routing_Approach_MACARON_NW.Mobilenode7.wlan[2].mgmt  dataQueueLen:vector  ETV
attr interpolationmode  sample-hold
attr title  "data queue length, vector"
vector 730  Mobility_Aware_Cross_Layer_Routing_Approach_MACARON_NW.Mobilenode7.wlan[3].mgmt  dataQueueLen:vector  ETV
attr interpolationmode  sample-hold
attr title  "data queue length, vector"
vector 740  Mobility_Aware_Cross_Layer_Routing_Approach_MACARON_NW.Mobilenode7.wlan[4].mgmt  dataQueueLen:vector  ETV
attr interpolationmode  sample-hold
attr title  "data queue length, vector"
vector 750  Mobility_Aware_Cross_Layer_Routing_Approach_MACARON_NW.Mobilenode7.wlan[5].mgmt  dataQueueLen:vector  ETV
attr interpolationmode  sample-hold
attr title  "data queue length, vector"
vector 760  Mobility_Aware_Cross_Layer_Routing_Approach_MACARON_NW.Mobilenode7.wlan[6].mgmt  dataQueueLen:vector  ETV
attr interpolationmode  sample-hold
attr title  "data queue length, vector"
vector 770  Mobility_Aware_Cross_Layer_Routing_Approach_MACARON_NW.Mobilenode7.wlan[7].mgmt  dataQueueLen:vector  ETV
attr interpolationmode  sample-hold
attr title  "data queue length, vector"
vector 780  Mobility_Aware_Cross_Layer_Routing_Approach_MACARON_NW.Mobilenode7.wlan[8].mgmt  dataQueueLen:vector  ETV
attr interpolationmode  sample-hold
attr title  "data queue length, vector"
vector 790  Mobility_Aware_Cross_Layer_Routing_Approach_MACARON_NW.Mobilenode7.wlan[9].mgmt  dataQueueLen:vector  ETV
attr interpolationmode  sample-hold
attr title  "data queue length, vector"
vector 800  Mobility_Aware_Cross_Layer_Routing_Approach_MACARON_NW.Mobilenode8.wlan[0].mgmt  dataQueueLen:vector  ETV
attr interpolationmode  sample-hold
attr title  "data queue length, vector"
vector 810  Mobility_Aware_Cross_Layer_Routing_Approach_MACARON_NW.Mobilenode8.wlan[1].mgmt  dataQueueLen:vector  ETV
attr interpolationmode  sample-hold
attr title  "data queue length, vector"
vector 820  Mobility_Aware_Cross_Layer_Routing_Approach_MACARON_NW.Mobilenode8.wlan[2].mgmt  dataQueueLen:vector  ETV
attr interpolationmode  sample-hold
attr title  "data queue length, vector"
vector 830  Mobility_Aware_Cross_Layer_Routing_Approach_MACARON_NW.Mobilenode8.wlan[3].mgmt  dataQueueLen:vector  ETV
attr interpolationmode  sample-hold
attr title  "data queue length, vector"
vector 840  Mobility_Aware_Cross_Layer_Routing_Approach_MACARON_NW.Mobilenode8.wlan[4].mgmt  dataQueueLen:vector  ETV
attr interpolationmode  sample-hold
attr title  "data queue length, vector"
vector 850  Mobility_Aware_Cross_Layer_Routing_Approach_MACARON_NW.Mobilenode8.wlan[5].mgmt  dataQueueLen:vector  ETV
attr interpolationmode  sample-hold
attr title  "data queue length, vector"
vector 860  Mobility_Aware_Cross_Layer_Routing_Approach_MACARON_NW.Mobilenode8.wlan[6].mgmt  dataQueueLen:vector  ETV
attr interpolationmode  sample-hold
attr title  "data queue length, vector"
vector 870  Mobility_Aware_Cross_Layer_Routing_Approach_MACARON_NW.Mobilenode8.wlan[7].mgmt  dataQueueLen:vector  ETV
attr interpolationmode  sample-hold
attr title  "data queue length, vector"
vector 880  Mobility_Aware_Cross_Layer_Routing_Approach_MACARON_NW.Mobilenode8.wlan[8].mgmt  dataQueueLen:vector  ETV
attr interpolationmode  sample-hold
attr title  "data queue length, vector"
vector 890  Mobility_Aware_Cross_Layer_Routing_Approach_MACARON_NW.Mobilenode8.wlan[9].mgmt  dataQueueLen:vector  ETV
attr interpolationmode  sample-hold
attr title  "data queue length, vector"
vector 900  Mobility_Aware_Cross_Layer_Routing_Approach_MACARON_NW.Mobilenode9.wlan[0].mgmt  dataQueueLen:vector  ETV
attr interpolationmode  sample-hold
attr title  "data queue length, vector"
vector 910  Mobility_Aware_Cross_Layer_Routing_Approach_MACARON_NW.Mobilenode9.wlan[1].mgmt  dataQueueLen:vector  ETV
attr interpolationmode  sample-hold
attr title  "data queue length, vector"
vector 920  Mobility_Aware_Cross_Layer_Routing_Approach_MACARON_NW.Mobilenode9.wlan[2].mgmt  dataQueueLen:vector  ETV
attr interpolationmode  sample-hold
attr title  "data queue length, vector"
vector 930  Mobility_Aware_Cross_Layer_Routing_Approach_MACARON_NW.Mobilenode9.wlan[3].mgmt  dataQueueLen:vector  ETV
attr interpolationmode  sample-hold
attr title  "data queue length, vector"
vector 940  Mobility_Aware_Cross_Layer_Routing_Approach_MACARON_NW.Mobilenode9.wlan[4].mgmt  dataQueueLen:vector  ETV
attr interpolationmode  sample-hold
attr title  "data queue length, vector"
vector 950  Mobility_Aware_Cross_Layer_Routing_Approach_MACARON_NW.Mobilenode9.wlan[5].mgmt  dataQueueLen:vector  ETV
attr interpolationmode  sample-hold
attr title  "data queue length, vector"
vector 960  Mobility_Aware_Cross_Layer_Routing_Approach_MACARON_NW.Mobilenode9.wlan[6].mgmt  dataQueueLen:vector  ETV
attr interpolationmode  sample-hold
attr title  "data queue length, vector"
vector 970  Mobility_Aware_Cross_Layer_Routing_Approach_MACARON_NW.Mobilenode9.wlan[7].mgmt  dataQueueLen:vector  ETV
attr interpolationmode  sample-hold
attr title  "data queue length, vector"
vector 980  Mobility_Aware_Cross_Layer_Routing_Approach_MACARON_NW.Mobilenode9.wlan[8].mgmt  dataQueueLen:vector  ETV
attr interpolationmode  sample-hold
attr title  "data queue length, vector"
vector 990  Mobility_Aware_Cross_Layer_Routing_Approach_MACARON_NW.Mobilenode9.wlan[9].mgmt  dataQueueLen:vector  ETV
attr interpolationmode  sample-hold
attr title  "data queue length, vector"
vector 1000  Mobility_Aware_Cross_Layer_Routing_Approach_MACARON_NW.Mobilenode10.wlan[0].mgmt  dataQueueLen:vector  ETV
attr interpolationmode  sample-hold
attr title  "data queue length, vector"
vector 1010  Mobility_Aware_Cross_Layer_Routing_Approach_MACARON_NW.Mobilenode10.wlan[1].mgmt  dataQueueLen:vector  ETV
attr interpolationmode  sample-hold
attr title  "data queue length, vector"
vector 1020  Mobility_Aware_Cross_Layer_Routing_Approach_MACARON_NW.Mobilenode10.wlan[2].mgmt  dataQueueLen:vector  ETV
attr interpolationmode  sample-hold
attr title  "data queue length, vector"
vector 1030  Mobility_Aware_Cross_Layer_Routing_Approach_MACARON_NW.Mobilenode10.wlan[3].mgmt  dataQueueLen:vector  ETV
attr interpolationmode  sample-hold
attr title  "data queue length, vector"
vector 1040  Mobility_Aware_Cross_Layer_Routing_Approach_MACARON_NW.Mobilenode10.wlan[4].mgmt  dataQueueLen:vector  ETV
attr interpolationmode  sample-hold
attr title  "data queue length, vector"
vector 1050  Mobility_Aware_Cross_Layer_Routing_Approach_MACARON_NW.Mobilenode10.wlan[5].mgmt  dataQueueLen:vector  ETV
attr interpolationmode  sample-hold
attr title  "data queue length, vector"
vector 1060  Mobility_Aware_Cross_Layer_Routing_Approach_MACARON_NW.Mobilenode10.wlan[6].mgmt  dataQueueLen:vector  ETV
attr interpolationmode  sample-hold
attr title  "data queue length, vector"
vector 1070  Mobility_Aware_Cross_Layer_Routing_Approach_MACARON_NW.Mobilenode10.wlan[7].mgmt  dataQueueLen:vector  ETV
attr interpolationmode  sample-hold
attr title  "data queue length, vector"
vector 1080  Mobility_Aware_Cross_Layer_Routing_Approach_MACARON_NW.Mobilenode10.wlan[8].mgmt  dataQueueLen:vector  ETV
attr interpolationmode  sample-hold
attr title  "data queue length, vector"
vector 1090  Mobility_Aware_Cross_Layer_Routing_Approach_MACARON_NW.Mobilenode10.wlan[9].mgmt  dataQueueLen:vector  ETV
attr interpolationmode  sample-hold
attr title  "data queue length, vector"
vector 1100  Mobility_Aware_Cross_Layer_Routing_Approach_MACARON_NW.Mobilenode11.wlan[0].mgmt  dataQueueLen:vector  ETV
attr interpolationmode  sample-hold
attr title  "data queue length, vector"
vector 1110  Mobility_Aware_Cross_Layer_Routing_Approach_MACARON_NW.Mobilenode11.wlan[1].mgmt  dataQueueLen:vector  ETV
attr interpolationmode  sample-hold
attr title  "data queue length, vector"
vector 1120  Mobility_Aware_Cross_Layer_Routing_Approach_MACARON_NW.Mobilenode11.wlan[2].mgmt  dataQueueLen:vector  ETV
attr interpolationmode  sample-hold
attr title  "data queue length, vector"
vector 1130  Mobility_Aware_Cross_Layer_Routing_Approach_MACARON_NW.Mobilenode11.wlan[3].mgmt  dataQueueLen:vector  ETV
attr interpolationmode  sample-hold
attr title  "data queue length, vector"
vector 1140  Mobility_Aware_Cross_Layer_Routing_Approach_MACARON_NW.Mobilenode11.wlan[4].mgmt  dataQueueLen:vector  ETV
attr interpolationmode  sample-hold
attr title  "data queue length, vector"
vector 1150  Mobility_Aware_Cross_Layer_Routing_Approach_MACARON_NW.Mobilenode11.wlan[5].mgmt  dataQueueLen:vector  ETV
attr interpolationmode  sample-hold
attr title  "data queue length, vector"
vector 1160  Mobility_Aware_Cross_Layer_Routing_Approach_MACARON_NW.Mobilenode11.wlan[6].mgmt  dataQueueLen:vector  ETV
attr interpolationmode  sample-hold
attr title  "data queue length, vector"
vector 1170  Mobility_Aware_Cross_Layer_Routing_Approach_MACARON_NW.Mobilenode11.wlan[7].mgmt  dataQueueLen:vector  ETV
attr interpolationmode  sample-hold
attr title  "data queue length, vector"
vector 1180  Mobility_Aware_Cross_Layer_Routing_Approach_MACARON_NW.Mobilenode11.wlan[8].mgmt  dataQueueLen:vector  ETV
attr interpolationmode  sample-hold
attr title  "data queue length, vector"
vector 1190  Mobility_Aware_Cross_Layer_Routing_Approach_MACARON_NW.Mobilenode11.wlan[9].mgmt  dataQueueLen:vector  ETV
attr interpolationmode  sample-hold
attr title  "data queue length, vector"
vector 1200  Mobility_Aware_Cross_Layer_Routing_Approach_MACARON_NW.Mobilenode12.wlan[0].mgmt  dataQueueLen:vector  ETV
attr interpolationmode  sample-hold
attr title  "data queue length, vector"
vector 1210  Mobility_Aware_Cross_Layer_Routing_Approach_MACARON_NW.Mobilenode12.wlan[1].mgmt  dataQueueLen:vector  ETV
attr interpolationmode  sample-hold
attr title  "data queue length, vector"
vector 1220  Mobility_Aware_Cross_Layer_Routing_Approach_MACARON_NW.Mobilenode12.wlan[2].mgmt  dataQueueLen:vector  ETV
attr interpolationmode  sample-hold
attr title  "data queue length, vector"
vector 1230  Mobility_Aware_Cross_Layer_Routing_Approach_MACARON_NW.Mobilenode12.wlan[3].mgmt  dataQueueLen:vector  ETV
attr interpolationmode  sample-hold
attr title  "data queue length, vector"
vector 1240  Mobility_Aware_Cross_Layer_Routing_Approach_MACARON_NW.Mobilenode12.wlan[4].mgmt  dataQueueLen:vector  ETV
attr interpolationmode  sample-hold
attr title  "data queue length, vector"
vector 1250  Mobility_Aware_Cross_Layer_Routing_Approach_MACARON_NW.Mobilenode12.wlan[5].mgmt  dataQueueLen:vector  ETV
attr interpolationmode  sample-hold
attr title  "data queue length, vector"
vector 1260  Mobility_Aware_Cross_Layer_Routing_Approach_MACARON_NW.Mobilenode12.wlan[6].mgmt  dataQueueLen:vector  ETV
attr interpolationmode  sample-hold
attr title  "data queue length, vector"
vector 1270  Mobility_Aware_Cross_Layer_Routing_Approach_MACARON_NW.Mobilenode12.wlan[7].mgmt  dataQueueLen:vector  ETV
attr interpolationmode  sample-hold
attr title  "data queue length, vector"
vector 1280  Mobility_Aware_Cross_Layer_Routing_Approach_MACARON_NW.Mobilenode12.wlan[8].mgmt  dataQueueLen:vector  ETV
attr interpolationmode  sample-hold
attr title  "data queue length, vector"
vector 1290  Mobility_Aware_Cross_Layer_Routing_Approach_MACARON_NW.Mobilenode12.wlan[9].mgmt  dataQueueLen:vector  ETV
attr interpolationmode  sample-hold
attr title  "data queue length, vector"
vector 1300  Mobility_Aware_Cross_Layer_Routing_Approach_MACARON_NW.Mobilenode13.wlan[0].mgmt  dataQueueLen:vector  ETV
attr interpolationmode  sample-hold
attr title  "data queue length, vector"
vector 1310  Mobility_Aware_Cross_Layer_Routing_Approach_MACARON_NW.Mobilenode13.wlan[1].mgmt  dataQueueLen:vector  ETV
attr interpolationmode  sample-hold
attr title  "data queue length, vector"
vector 1320  Mobility_Aware_Cross_Layer_Routing_Approach_MACARON_NW.Mobilenode13.wlan[2].mgmt  dataQueueLen:vector  ETV
attr interpolationmode  sample-hold
attr title  "data queue length, vector"
vector 1330  Mobility_Aware_Cross_Layer_Routing_Approach_MACARON_NW.Mobilenode13.wlan[3].mgmt  dataQueueLen:vector  ETV
attr interpolationmode  sample-hold
attr title  "data queue length, vector"
vector 1340  Mobility_Aware_Cross_Layer_Routing_Approach_MACARON_NW.Mobilenode13.wlan[4].mgmt  dataQueueLen:vector  ETV
attr interpolationmode  sample-hold
attr title  "data queue length, vector"
vector 1350  Mobility_Aware_Cross_Layer_Routing_Approach_MACARON_NW.Mobilenode13.wlan[5].mgmt  dataQueueLen:vector  ETV
attr interpolationmode  sample-hold
attr title  "data queue length, vector"
vector 1360  Mobility_Aware_Cross_Layer_Routing_Approach_MACARON_NW.Mobilenode13.wlan[6].mgmt  dataQueueLen:vector  ETV
attr interpolationmode  sample-hold
attr title  "data queue length, vector"
vector 1370  Mobility_Aware_Cross_Layer_Routing_Approach_MACARON_NW.Mobilenode13.wlan[7].mgmt  dataQueueLen:vector  ETV
attr interpolationmode  sample-hold
attr title  "data queue length, vector"
vector 1380  Mobility_Aware_Cross_Layer_Routing_Approach_MACARON_NW.Mobilenode13.wlan[8].mgmt  dataQueueLen:vector  ETV
attr interpolationmode  sample-hold
attr title  "data queue length, vector"
vector 1390  Mobility_Aware_Cross_Layer_Routing_Approach_MACARON_NW.Mobilenode13.wlan[9].mgmt  dataQueueLen:vector  ETV
attr interpolationmode  sample-hold
attr title  "data queue length, vector"
vector 1400  Mobility_Aware_Cross_Layer_Routing_Approach_MACARON_NW.Mobilenode14.wlan[0].mgmt  dataQueueLen:vector  ETV
attr interpolationmode  sample-hold
attr title  "data queue length, vector"
vector 1410  Mobility_Aware_Cross_Layer_Routing_Approach_MACARON_NW.Mobilenode14.wlan[1].mgmt  dataQueueLen:vector  ETV
attr interpolationmode  sample-hold
attr title  "data queue length, vector"
vector 1420  Mobility_Aware_Cross_Layer_Routing_Approach_MACARON_NW.Mobilenode14.wlan[2].mgmt  dataQueueLen:vector  ETV
attr interpolationmode  sample-hold
attr title  "data queue length, vector"
vector 1430  Mobility_Aware_Cross_Layer_Routing_Approach_MACARON_NW.Mobilenode14.wlan[3].mgmt  dataQueueLen:vector  ETV
attr interpolationmode  sample-hold
attr title  "data queue length, vector"
vector 1440  Mobility_Aware_Cross_Layer_Routing_Approach_MACARON_NW.Mobilenode14.wlan[4].mgmt  dataQueueLen:vector  ETV
attr interpolationmode  sample-hold
attr title  "data queue length, vector"
vector 1450  Mobility_Aware_Cross_Layer_Routing_Approach_MACARON_NW.Mobilenode14.wlan[5].mgmt  dataQueueLen:vector  ETV
attr interpolationmode  sample-hold
attr title  "data queue length, vector"
vector 1460  Mobility_Aware_Cross_Layer_Routing_Approach_MACARON_NW.Mobilenode14.wlan[6].mgmt  dataQueueLen:vector  ETV
attr interpolationmode  sample-hold
attr title  "data queue length, vector"
vector 1470  Mobility_Aware_Cross_Layer_Routing_Approach_MACARON_NW.Mobilenode14.wlan[7].mgmt  dataQueueLen:vector  ETV
attr interpolationmode  sample-hold
attr title  "data queue length, vector"
vector 1480  Mobility_Aware_Cross_Layer_Routing_Approach_MACARON_NW.Mobilenode14.wlan[8].mgmt  dataQueueLen:vector  ETV
attr interpolationmode  sample-hold
attr title  "data queue length, vector"
vector 1490  Mobility_Aware_Cross_Layer_Routing_Approach_MACARON_NW.Mobilenode14.wlan[9].mgmt  dataQueueLen:vector  ETV
attr interpolationmode  sample-hold
attr title  "data queue length, vector"
vector 1500  Mobility_Aware_Cross_Layer_Routing_Approach_MACARON_NW.Mobilenode15.wlan[0].mgmt  dataQueueLen:vector  ETV
attr interpolationmode  sample-hold
attr title  "data queue length, vector"