file 1834403 1647272530                                         
version 2
run Mobility_Aware_Cross_Layer_Routing_Approach-0-20220228-11:29:15-3524
attr configname Mobility_Aware_Cross_Layer_Routing_Approach
attr datetime 20220228-11:29:15
attr experiment Mobility_Aware_Cross_Layer_Routing_Approach
attr inifile omnetpp.ini
attr iterationvars ""
attr iterationvars2 $repetition=0
attr measurement ""
attr network Mobility_Aware_Cross_Layer_Routing_Approach_MACARON_NW
attr processid 3524
attr repetition 0
attr replication #0
attr resultdir results
attr runnumber 0
attr seedset 0
vector 0  Mobility_Aware_Cross_Layer_Routing_Approach_MACARON_NW.Mobilenode.wlan[0].mgmt  dataQueueLen:vector  ETV
attr interpolationmode sample-hold
attr title "data queue length, vector"
0	1446466 9 0 0 0 0 1 0 0 0 0
vector 10  Mobility_Aware_Cross_Layer_Routing_Approach_MACARON_NW.Mobilenode.wlan[1].mgmt  dataQueueLen:vector  ETV
attr interpolationmode sample-hold
attr title "data queue length, vector"
10	1446559 10 0 0 0 0 1 0 0 0 0
vector 20  Mobility_Aware_Cross_Layer_Routing_Approach_MACARON_NW.Mobilenode.wlan[2].mgmt  dataQueueLen:vector  ETV
attr interpolationmode sample-hold
attr title "data queue length, vector"
20	1446658 10 0 0 0 0 1 0 0 0 0
vector 30  Mobility_Aware_Cross_Layer_Routing_Approach_MACARON_NW.Mobilenode.wlan[3].mgmt  dataQueueLen:vector  ETV
attr interpolationmode sample-hold
attr title "data queue length, vector"
30	1446757 10 0 0 0 0 1 0 0 0 0
vector 40  Mobility_Aware_Cross_Layer_Routing_Approach_MACARON_NW.Mobilenode.wlan[4].mgmt  dataQueueLen:vector  ETV
attr interpolationmode sample-hold
attr title "data queue length, vector"
40	1446856 10 0 0 0 0 1 0 0 0 0
vector 50  Mobility_Aware_Cross_Layer_Routing_Approach_MACARON_NW.Mobilenode.wlan[5].mgmt  dataQueueLen:vector  ETV
attr interpolationmode sample-hold
attr title "data queue length, vector"
50	1446955 10 0 0 0 0 1 0 0 0 0
vector 60  Mobility_Aware_Cross_Layer_Routing_Approach_MACARON_NW.Mobilenode.wlan[6].mgmt  dataQueueLen:vector  ETV
attr interpolationmode sample-hold
attr title "data queue length, vector"
60	1447054 10 0 0 0 0 1 0 0 0 0
vector 70  Mobility_Aware_Cross_Layer_Routing_Approach_MACARON_NW.Mobilenode.wlan[7].mgmt  dataQueueLen:vector  ETV
attr interpolationmode sample-hold
attr title "data queue length, vector"
70	1447153 10 0 0 0 0 1 0 0 0 0
vector 80  Mobility_Aware_Cross_Layer_Routing_Approach_MACARON_NW.Mobilenode.wlan[8].mgmt  dataQueueLen:vector  ETV
attr interpolationmode sample-hold
attr title "data queue length, vector"
80	1447252 10 0 0 0 0 1 0 0 0 0
vector 90  Mobility_Aware_Cross_Layer_Routing_Approach_MACARON_NW.Mobilenode.wlan[9].mgmt  dataQueueLen:vector  ETV
attr interpolationmode sample-hold
attr title "data queue length, vector"
90	1447351 10 0 0 0 0 1 0 0 0 0
vector 100  Mobility_Aware_Cross_Layer_Routing_Approach_MACARON_NW.Mobilenode1.wlan[0].mgmt  dataQueueLen:vector  ETV
attr interpolationmode sample-hold
attr title "data queue length, vector"
100	1447450 11 0 0 0 0 1 0 0 0 0
vector 110  Mobility_Aware_Cross_Layer_Routing_Approach_MACARON_NW.Mobilenode1.wlan[1].mgmt  dataQueueLen:vector  ETV
attr interpolationmode sample-hold
attr title "data queue length, vector"
110	1447581 11 0 0 0 0 1 0 0 0 0
vector 120  Mobility_Aware_Cross_Layer_Routing_Approach_MACARON_NW.Mobilenode1.wlan[2].mgmt  dataQueueLen:vector  ETV
attr interpolationmode sample-hold
attr title "data queue length, vector"
120	1447712 11 0 0 0 0 1 0 0 0 0
vector 130  Mobility_Aware_Cross_Layer_Routing_Approach_MACARON_NW.Mobilenode1.wlan[3].mgmt  dataQueueLen:vector  ETV
attr interpolationmode sample-hold
attr title "data queue length, vector"
130	1447843 11 0 0 0 0 1 0 0 0 0
vector 140  Mobility_Aware_Cross_Layer_Routing_Approach_MACARON_NW.Mobilenode1.wlan[4].mgmt  dataQueueLen:vector  ETV
attr interpolationmode sample-hold
attr title "data queue length, vector"
140	1447974 11 0 0 0 0 1 0 0 0 0
vector 150  Mobility_Aware_Cross_Layer_Routing_Approach_MACARON_NW.Mobilenode1.wlan[5].mgmt  dataQueueLen:vector  ETV
attr interpolationmode sample-hold
attr title "data queue length, vector"
150	1448105 11 0 0 0 0 1 0 0 0 0
vector 160  Mobility_Aware_Cross_Layer_Routing_Approach_MACARON_NW.Mobilenode1.wlan[6].mgmt  dataQueueLen:vector  ETV
attr interpolationmode sample-hold
attr title "data queue length, vector"
160	1448236 11 0 0 0 0 1 0 0 0 0
vector 170  Mobility_Aware_Cross_Layer_Routing_Approach_MACARON_NW.Mobilenode1.wlan[7].mgmt  dataQueueLen:vector  ETV
attr interpolationmode sample-hold
attr title "data queue length, vector"
170	1448367 11 0 0 0 0 1 0 0 0 0
vector 180  Mobility_Aware_Cross_Layer_Routing_Approach_MACARON_NW.Mobilenode1.wlan[8].mgmt  dataQueueLen:vector  ETV
attr interpolationmode sample-hold
attr title "data queue length, vector"
180	1448498 11 0 0 0 0 1 0 0 0 0
vector 190  Mobility_Aware_Cross_Layer_Routing_Approach_MACARON_NW.Mobilenode1.wlan[9].mgmt  dataQueueLen:vector  ETV
attr interpolationmode sample-hold
attr title "data queue length, vector"
190	1448629 11 0 0 0 0 1 0 0 0 0
vector 200  Mobility_Aware_Cross_Layer_Routing_Approach_MACARON_NW.Mobilenode2.wlan[0].mgmt  dataQueueLen:vector  ETV
attr interpolationmode sample-hold
attr title "data queue length, vector"
200	1448760 11 0 0 0 0 1 0 0 0 0
vector 210  Mobility_Aware_Cross_Layer_Routing_Approach_MACARON_NW.Mobilenode2.wlan[1].mgmt  dataQueueLen:vector  ETV
attr interpolationmode sample-hold
attr title "data queue length, vector"
210	1448837 11 0 0 0 0 1 0 0 0 0
vector 220  Mobility_Aware_Cross_Layer_Routing_Approach_MACARON_NW.Mobilenode2.wlan[2].mgmt  dataQueueLen:vector  ETV
attr interpolationmode sample-hold
attr title "data queue length, vector"
220	1448914 11 0 0 0 0 1 0 0 0 0
vector 230  Mobility_Aware_Cross_Layer_Routing_Approach_MACARON_NW.Mobilenode2.wlan[3].mgmt  dataQueueLen:vector  ETV
attr interpolationmode sample-hold
attr title "data queue length, vector"
230	1448991 11 0 0 0 0 1 0 0 0 0
vector 240  Mobility_Aware_Cross_Layer_Routing_Approach_MACARON_NW.Mobilenode2.wlan[4].mgmt  dataQueueLen:vector  ETV
attr interpolationmode sample-hold
attr title "data queue length, vector"
240	1449068 11 0 0 0 0 1 0 0 0 0
vector 250  Mobility_Aware_Cross_Layer_Routing_Approach_MACARON_NW.Mobilenode2.wlan[5].mgmt  dataQueueLen:vector  ETV
attr interpolationmode sample-hold
attr title "data queue length, vector"
250	1449145 11 0 0 0 0 1 0 0 0 0
vector 260  Mobility_Aware_Cross_Layer_Routing_Approach_MACARON_NW.Mobilenode2.wlan[6].mgmt  dataQueueLen:vector  ETV
attr interpolationmode sample-hold
attr title "data queue length, vector"
260	1449222 11 0 0 0 0 1 0 0 0 0
vector 270  Mobility_Aware_Cross_Layer_Routing_Approach_MACARON_NW.Mobilenode2.wlan[7].mgmt  dataQueueLen:vector  ETV
attr interpolationmode sample-hold
attr title "data queue length, vector"
270	1449299 11 0 0 0 0 1 0 0 0 0
vector 280  Mobility_Aware_Cross_Layer_Routing_Approach_MACARON_NW.Mobilenode2.wlan[8].mgmt  dataQueueLen:vector  ETV
attr interpolationmode sample-hold
attr title "data queue length, vector"
280	1449376 11 0 0 0 0 1 0 0 0 0
vector 290  Mobility_Aware_Cross_Layer_Routing_Approach_MACARON_NW.Mobilenode2.wlan[9].mgmt  dataQueueLen:vector  ETV
attr interpolationmode sample-hold
attr title "data queue length, vector"
290	1449453 11 0 0 0 0 1 0 0 0 0
vector 300  Mobility_Aware_Cross_Layer_Routing_Approach_MACARON_NW.Mobilenode3.wlan[0].mgmt  dataQueueLen:vector  ETV
attr interpolationmode sample-hold
attr title "data queue length, vector"
300	1449530 11 0 0 0 0 1 0 0 0 0
vector 310  Mobility_Aware_Cross_Layer_Routing_Approach_MACARON_NW.Mobilenode3.wlan[1].mgmt  dataQueueLen:vector  ETV
attr interpolationmode sample-hold
attr title "data queue length, vector"
310	1449607 11 0 0 0 0 1 0 0 0 0
vector 320  Mobility_Aware_Cross_Layer_Routing_Approach_MACARON_NW.Mobilenode3.wlan[2].mgmt  dataQueueLen:vector  ETV
attr interpolationmode sample-hold
attr title "data queue length, vector"
320	1449684 11 0 0 0 0 1 0 0 0 0
vector 330  Mobility_Aware_Cross_Layer_Routing_Approach_MACARON_NW.Mobilenode3.wlan[3].mgmt  dataQueueLen:vector  ETV
attr interpolationmode sample-hold
attr title "data queue length, vector"
330	1449761 11 0 0 0 0 1 0 0 0 0
vector 340  Mobility_Aware_Cross_Layer_Routing_Approach_MACARON_NW.Mobilenode3.wlan[4].mgmt  dataQueueLen:vector  ETV
attr interpolationmode sample-hold
attr title "data queue length, vector"
340	1449838 11 0 0 0 0 1 0 0 0 0
vector 350  Mobility_Aware_Cross_Layer_Routing_Approach_MACARON_NW.Mobilenode3.wlan[5].mgmt  dataQueueLen:vector  ETV
attr interpolationmode sample-hold
attr title "data queue length, vector"
350	1449915 11 0 0 0 0 1 0 0 0 0
vector 360  Mobility_Aware_Cross_Layer_Routing_Approach_MACARON_NW.Mobilenode3.wlan[6].mgmt  dataQueueLen:vector  ETV
attr interpolationmode sample-hold
attr title "data queue length, vector"
360	1449992 11 0 0 0 0 1 0 0 0 0
vector 370  Mobility_Aware_Cross_Layer_Routing_Approach_MACARON_NW.Mobilenode3.wlan[7].mgmt  dataQueueLen:vector  ETV
attr interpolationmode sample-hold
attr title "data queue length, vector"
370	1450069 11 0 0 0 0 1 0 0 0 0
vector 380  Mobility_Aware_Cross_Layer_Routing_Approach_MACARON_NW.Mobilenode3.wlan[8].mgmt  dataQueueLen:vector  ETV
attr interpolationmode sample-hold
attr title "data queue length, vector"
380	1450146 11 0 0 0 0 1 0 0 0 0
vector 390  Mobility_Aware_Cross_Layer_Routing_Approach_MACARON_NW.Mobilenode3.wlan[9].mgmt  dataQueueLen:vector  ETV
attr interpolationmode sample-hold
attr title "data queue length, vector"
390	1450223 11 0 0 0 0 1 0 0 0 0
vector 400  Mobility_Aware_Cross_Layer_Routing_Approach_MACARON_NW.Mobilenode4.wlan[0].mgmt  dataQueueLen:vector  ETV
attr interpolationmode sample-hold
attr title "data queue length, vector"
400	1450300 11 0 0 0 0 1 0 0 0 0
vector 410  Mobility_Aware_Cross_Layer_Routing_Approach_MACARON_NW.Mobilenode4.wlan[1].mgmt  dataQueueLen:vector  ETV
attr interpolationmode sample-hold
attr title "data queue length, vector"
410	1450535 11 0 0 0 0 1 0 0 0 0
vector 420  Mobility_Aware_Cross_Layer_Routing_Approach_MACARON_NW.Mobilenode4.wlan[2].mgmt  dataQueueLen:vector  ETV
attr interpolationmode sample-hold
attr title "data queue length, vector"
420	1450770 11 0 0 0 0 1 0 0 0 0
vector 430  Mobility_Aware_Cross_Layer_Routing_Approach_MACARON_NW.Mobilenode4.wlan[3].mgmt  dataQueueLen:vector  ETV
attr interpolationmode sample-hold
attr title "data queue length, vector"
430	1451005 11 0 0 0 0 1 0 0 0 0
vector 440  Mobility_Aware_Cross_Layer_Routing_Approach_MACARON_NW.Mobilenode4.wlan[4].mgmt  dataQueueLen:vector  ETV
attr interpolationmode sample-hold
attr title "data queue length, vector"
440	1451240 11 0 0 0 0 1 0 0 0 0
vector 450  Mobility_Aware_Cross_Layer_Routing_Approach_MACARON_NW.Mobilenode4.wlan[5].mgmt  dataQueueLen:vector  ETV
attr interpolationmode sample-hold
attr title "data queue length, vector"
450	1451475 11 0 0 0 0 1 0 0 0 0
vector 460  Mobility_Aware_Cross_Layer_Routing_Approach_MACARON_NW.Mobilenode4.wlan[6].mgmt  dataQueueLen:vector  ETV
attr interpolationmode sample-hold
attr title "data queue length, vector"
460	1451710 11 0 0 0 0 1 0 0 0 0
vector 470  Mobility_Aware_Cross_Layer_Routing_Approach_MACARON_NW.Mobilenode4.wlan[7].mgmt  dataQueueLen:vector  ETV
attr interpolationmode sample-hold
attr title "data queue length, vector"
470	1451945 11 0 0 0 0 1 0 0 0 0
vector 480  Mobility_Aware_Cross_Layer_Routing_Approach_MACARON_NW.Mobilenode4.wlan[8].mgmt  dataQueueLen:vector  ETV
attr interpolationmode sample-hold
attr title "data queue length, vector"
480	1452180 11 0 0 0 0 1 0 0 0 0
vector 490  Mobility_Aware_Cross_Layer_Routing_Approach_MACARON_NW.Mobilenode4.wlan[9].mgmt  dataQueueLen:vector  ETV
attr interpolationmode sample-hold
attr title "data queue length, vector"
490	1452415 11 0 0 0 0 1 0 0 0 0
vector 500  Mobility_Aware_Cross_Layer_Routing_Approach_MACARON_NW.Mobilenode5.wlan[0].mgmt  dataQueueLen:vector  ETV
attr interpolationmode sample-hold
attr title "data queue length, vector"
500	1452650 11 0 0 0 0 1 0 0 0 0
vector 510  Mobility_Aware_Cross_Layer_Routing_Approach_MACARON_NW.Mobilenode5.wlan[1].mgmt  dataQueueLen:vector  ETV
attr interpolationmode sample-hold
attr title "data queue length, vector"
510	1452727 11 0 0 0 0 1 0 0 0 0
vector 520  Mobility_Aware_Cross_Layer_Routing_Approach_MACARON_NW.Mobilenode5.wlan[2].mgmt  dataQueueLen:vector  ETV
attr interpolationmode sample-hold
attr title "data queue length, vector"
520	1452804 11 0 0 0 0 1 0 0 0 0
vector 530  Mobility_Aware_Cross_Layer_Routing_Approach_MACARON_NW.Mobilenode5.wlan[3].mgmt  dataQueueLen:vector  ETV
attr interpolationmode sample-hold
attr title "data queue length, vector"
530	1452881 11 0 0 0 0 1 0 0 0 0
vector 540  Mobility_Aware_Cross_Layer_Routing_Approach_MACARON_NW.Mobilenode5.wlan[4].mgmt  dataQueueLen:vector  ETV
attr interpolationmode sample-hold
attr title "data queue length, vector"
540	1452958 11 0 0 0 0 1 0 0 0 0
vector 550  Mobility_Aware_Cross_Layer_Routing_Approach_MACARON_NW.Mobilenode5.wlan[5].mgmt  dataQueueLen:vector  ETV
attr interpolationmode sample-hold
attr title "data queue length, vector"
550	1453035 11 0 0 0 0 1 0 0 0 0
vector 560  Mobility_Aware_Cross_Layer_Routing_Approach_MACARON_NW.Mobilenode5.wlan[6].mgmt  dataQueueLen:vector  ETV
attr interpolationmode sample-hold
attr title "data queue length, vector"
560	1453112 11 0 0 0 0 1 0 0 0 0
vector 570  Mobility_Aware_Cross_Layer_Routing_Approach_MACARON_NW.Mobilenode5.wlan[7].mgmt  dataQueueLen:vector  ETV
attr interpolationmode sample-hold
attr title "data queue length, vector"
570	1453189 11 0 0 0 0 1 0 0 0 0
vector 580  Mobility_Aware_Cross_Layer_Routing_Approach_MACARON_NW.Mobilenode5.wlan[8].mgmt  dataQueueLen:vector  ETV
attr interpolationmode sample-hold
attr title "data queue length, vector"
580	1453266 11 0 0 0 0 1 0 0 0 0
vector 590  Mobility_Aware_Cross_Layer_Routing_Approach_MACARON_NW.Mobilenode5.wlan[9].mgmt  dataQueueLen:vector  ETV
attr interpolationmode sample-hold
attr title "data queue length, vector"
590	1453343 11 0 0 0 0 1 0 0 0 0
vector 600  Mobility_Aware_Cross_Layer_Routing_Approach_MACARON_NW.Mobilenode6.wlan[0].mgmt  dataQueueLen:vector  ETV
attr interpolationmode sample-hold
attr title "data queue length, vector"
600	1453420 11 0 0 0 0 1 0 0 0 0
vector 610  Mobility_Aware_Cross_Layer_Routing_Approach_MACARON_NW.Mobilenode6.wlan[1].mgmt  dataQueueLen:vector  ETV
attr interpolationmode sample-hold
attr title "data queue length, vector"
610	1453659 11 0 0 0 0 1 0 0 0 0
vector 620  Mobility_Aware_Cross_Layer_Routing_Approach_MACARON_NW.Mobilenode6.wlan[2].mgmt  dataQueueLen:vector  ETV
attr interpolationmode sample-hold
attr title "data queue length, vector"
620	1453898 11 0 0 0 0 1 0 0 0 0
vector 630  Mobility_Aware_Cross_Layer_Routing_Approach_MACARON_NW.Mobilenode6.wlan[3].mgmt  dataQueueLen:vector  ETV
attr interpolationmode sample-hold
attr title "data queue length, vector"
630	1454137 11 0 0 0 0 1 0 0 0 0
vector 640  Mobility_Aware_Cross_Layer_Routing_Approach_MACARON_NW.Mobilenode6.wlan[4].mgmt  dataQueueLen:vector  ETV
attr interpolationmode sample-hold
attr title "data queue length, vector"
640	1454376 11 0 0 0 0 1 0 0 0 0
vector 650  Mobility_Aware_Cross_Layer_Routing_Approach_MACARON_NW.Mobilenode6.wlan[5].mgmt  dataQueueLen:vector  ETV
attr interpolationmode sample-hold
attr title "data queue length, vector"
650	1454615 11 0 0 0 0 1 0 0 0 0
vector 660  Mobility_Aware_Cross_Layer_Routing_Approach_MACARON_NW.Mobilenode6.wlan[6].mgmt  dataQueueLen:vector  ETV
attr interpolationmode sample-hold
attr title "data queue length, vector"
660	1454854 11 0 0 0 0 1 0 0 0 0
vector 670  Mobility_Aware_Cross_Layer_Routing_Approach_MACARON_NW.Mobilenode6.wlan[7].mgmt  dataQueueLen:vector  ETV
attr interpolationmode sample-hold
attr title "data queue length, vector"
670	1455093 11 0 0 0 0 1 0 0 0 0
vector 680  Mobility_Aware_Cross_Layer_Routing_Approach_MACARON_NW.Mobilenode6.wlan[8].mgmt  dataQueueLen:vector  ETV
attr interpolationmode sample-hold
attr title "data queue length, vector"
680	1455332 11 0 0 0 0 1 0 0 0 0
vector 690  Mobility_Aware_Cross_Layer_Routing_Approach_MACARON_NW.Mobilenode6.wlan[9].mgmt  dataQueueLen:vector  ETV
attr interpolationmode sample-hold
attr title "data queue length, vector"
690	1455543 11 0 0 0 0 1 0 0 0 0
vector 700  Mobility_Aware_Cross_Layer_Routing_Approach_MACARON_NW.Mobilenode7.wlan[0].mgmt  dataQueueLen:vector  ETV
attr interpolationmode sample-hold
attr title "data queue length, vector"
700	1455782 11 0 0 0 0 1 0 0 0 0
vector 710  Mobility_Aware_Cross_Layer_Routing_Approach_MACARON_NW.Mobilenode7.wlan[1].mgmt  dataQueueLen:vector  ETV
attr interpolationmode sample-hold
attr title "data queue length, vector"
710	1455859 11 0 0 0 0 1 0 0 0 0
vector 720  Mobility_Aware_Cross_Layer_Routing_Approach_MACARON_NW.Mobilenode7.wlan[2].mgmt  dataQueueLen:vector  ETV
attr interpolationmode sample-hold
attr title "data queue length, vector"
720	1455936 11 0 0 0 0 1 0 0 0 0
vector 730  Mobility_Aware_Cross_Layer_Routing_Approach_MACARON_NW.Mobilenode7.wlan[3].mgmt  dataQueueLen:vector  ETV
attr interpolationmode sample-hold
attr title "data queue length, vector"
730	1456013 11 0 0 0 0 1 0 0 0 0
vector 740  Mobility_Aware_Cross_Layer_Routing_Approach_MACARON_NW.Mobilenode7.wlan[4].mgmt  dataQueueLen:vector  ETV
attr interpolationmode sample-hold
attr title "data queue length, vector"
740	1456090 11 0 0 0 0 1 0 0 0 0
vector 750  Mobility_Aware_Cross_Layer_Routing_Approach_MACARON_NW.Mobilenode7.wlan[5].mgmt  dataQueueLen:vector  ETV
attr interpolationmode sample-hold
attr title "data queue length, vector"
750	1456167 11 0 0 0 0 1 0 0 0 0
vector 760  Mobility_Aware_Cross_Layer_Routing_Approach_MACARON_NW.Mobilenode7.wlan[6].mgmt  dataQueueLen:vector  ETV
attr interpolationmode sample-hold
attr title "data queue length, vector"
760	1456244 11 0 0 0 0 1 0 0 0 0
vector 770  Mobility_Aware_Cross_Layer_Routing_Approach_MACARON_NW.Mobilenode7.wlan[7].mgmt  dataQueueLen:vector  ETV
attr interpolationmode sample-hold
attr title "data queue length, vector"
770	1456321 11 0 0 0 0 1 0 0 0 0
vector 780  Mobility_Aware_Cross_Layer_Routing_Approach_MACARON_NW.Mobilenode7.wlan[8].mgmt  dataQueueLen:vector  ETV
attr interpolationmode sample-hold
attr title "data queue length, vector"
780	1456398 11 0 0 0 0 1 0 0 0 0
vector 790  Mobility_Aware_Cross_Layer_Routing_Approach_MACARON_NW.Mobilenode7.wlan[9].mgmt  dataQueueLen:vector  ETV
attr interpolationmode sample-hold
attr title "data queue length, vector"
790	1456475 11 0 0 0 0 1 0 0 0 0
vector 800  Mobility_Aware_Cross_Layer_Routing_Approach_MACARON_NW.Mobilenode8.wlan[0].mgmt  dataQueueLen:vector  ETV
attr interpolationmode sample-hold
attr title "data queue length, vector"
800	1456552 11 0 0 0 0 1 0 0 0 0
vector 810  Mobility_Aware_Cross_Layer_Routing_Approach_MACARON_NW.Mobilenode8.wlan[1].mgmt  dataQueueLen:vector  ETV
attr interpolationmode sample-hold
attr title "data queue length, vector"
810	1456683 11 0 0 0 0 1 0 0 0 0
vector 820  Mobility_Aware_Cross_Layer_Routing_Approach_MACARON_NW.Mobilenode8.wlan[2].mgmt  dataQueueLen:vector  ETV
attr interpolationmode sample-hold
attr title "data queue length, vector"
820	1456814 11 0 0 0 0 1 0 0 0 0
vector 830  Mobility_Aware_Cross_Layer_Routing_Approach_MACARON_NW.Mobilenode8.wlan[3].mgmt  dataQueueLen:vector  ETV
attr interpolationmode sample-hold
attr title "data queue length, vector"
830	1456945 11 0 0 0 0 1 0 0 0 0
vector 840  Mobility_Aware_Cross_Layer_Routing_Approach_MACARON_NW.Mobilenode8.wlan[4].mgmt  dataQueueLen:vector  ETV
attr interpolationmode sample-hold
attr title "data queue length, vector"
840	1457076 11 0 0 0 0 1 0 0 0 0
vector 850  Mobility_Aware_Cross_Layer_Routing_Approach_MACARON_NW.Mobilenode8.wlan[5].mgmt  dataQueueLen:vector  ETV
attr interpolationmode sample-hold
attr title "data queue length, vector"
850	1457207 11 0 0 0 0 1 0 0 0 0
vector 860  Mobility_Aware_Cross_Layer_Routing_Approach_MACARON_NW.Mobilenode8.wlan[6].mgmt  dataQueueLen:vector  ETV
attr interpolationmode sample-hold
attr title "data queue length, vector"
860	1457338 11 0 0 0 0 1 0 0 0 0
vector 870  Mobility_Aware_Cross_Layer_Routing_Approach_MACARON_NW.Mobilenode8.wlan[7].mgmt  dataQueueLen:vector  ETV
attr interpolationmode sample-hold
attr title "data queue length, vector"
870	1457469 11 0 0 0 0 1 0 0 0 0
vector 880  Mobility_Aware_Cross_Layer_Routing_Approach_MACARON_NW.Mobilenode8.wlan[8].mgmt  dataQueueLen:vector  ETV
attr interpolationmode sample-hold
attr title "data queue length, vector"
880	1457600 11 0 0 0 0 1 0 0 0 0
vector 890  Mobility_Aware_Cross_Layer_Routing_Approach_MACARON_NW.Mobilenode8.wlan[9].mgmt  dataQueueLen:vector  ETV
attr interpolationmode sample-hold
attr title "data queue length, vector"
890	1457731 11 0 0 0 0 1 0 0 0 0
vector 900  Mobility_Aware_Cross_Layer_Routing_Approach_MACARON_NW.Mobilenode9.wlan[0].mgmt  dataQueueLen:vector  ETV
attr interpolationmode sample-hold
attr title "data queue length, vector"
900	1457862 11 0 0 0 0 1 0 0 0 0
vector 910  Mobility_Aware_Cross_Layer_Routing_Approach_MACARON_NW.Mobilenode9.wlan[1].mgmt  dataQueueLen:vector  ETV
attr interpolationmode sample-hold
attr title "data queue length, vector"
910	1457939 11 0 0 0 0 1 0 0 0 0
vector 920  Mobility_Aware_Cross_Layer_Routing_Approach_MACARON_NW.Mobilenode9.wlan[2].mgmt  dataQueueLen:vector  ETV
attr interpolationmode sample-hold
attr title "data queue length, vector"
920	1458016 11 0 0 0 0 1 0 0 0 0
vector 930  Mobility_Aware_Cross_Layer_Routing_Approach_MACARON_NW.Mobilenode9.wlan[3].mgmt  dataQueueLen:vector  ETV
attr interpolationmode sample-hold
attr title "data queue length, vector"
930	1458093 11 0 0 0 0 1 0 0 0 0
vector 940  Mobility_Aware_Cross_Layer_Routing_Approach_MACARON_NW.Mobilenode9.wlan[4].mgmt  dataQueueLen:vector  ETV
attr interpolationmode sample-hold
attr title "data queue length, vector"
940	1458170 11 0 0 0 0 1 0 0 0 0
vector 950  Mobility_Aware_Cross_Layer_Routing_Approach_MACARON_NW.Mobilenode9.wlan[5].mgmt  dataQueueLen:vector  ETV
attr interpolationmode sample-hold
attr title "data queue length, vector"
950	1458247 11 0 0 0 0 1 0 0 0 0
vector 960  Mobility_Aware_Cross_Layer_Routing_Approach_MACARON_NW.Mobilenode9.wlan[6].mgmt  dataQueueLen:vector  ETV
attr interpolationmode sample-hold
attr title "data queue length, vector"
960	1458324 11 0 0 0 0 1 0 0 0 0
vector 970  Mobility_Aware_Cross_Layer_Routing_Approach_MACARON_NW.Mobilenode9.wlan[7].mgmt  dataQueueLen:vector  ETV
attr interpolationmode sample-hold
attr title "data queue length, vector"
970	1458401 11 0 0 0 0 1 0 0 0 0
vector 980  Mobility_Aware_Cross_Layer_Routing_Approach_MACARON_NW.Mobilenode9.wlan[8].mgmt  dataQueueLen:vector  ETV
attr interpolationmode sample-hold
attr title "data queue length, vector"
980	1458478 11 0 0 0 0 1 0 0 0 0
vector 990  Mobility_Aware_Cross_Layer_Routing_Approach_MACARON_NW.Mobilenode9.wlan[9].mgmt  dataQueueLen:vector  ETV
attr interpolationmode sample-hold
attr title "data queue length, vector"
990	1458555 11 0 0 0 0 1 0 0 0 0
vector 1000  Mobility_Aware_Cross_Layer_Routing_Approach_MACARON_NW.Mobilenode10.wlan[0].mgmt  dataQueueLen:vector  ETV
attr interpolationmode sample-hold
attr title "data queue length, vector"
1000	1458632 12 0 0 0 0 1 0 0 0 0
vector 1010  Mobility_Aware_Cross_Layer_Routing_Approach_MACARON_NW.Mobilenode10.wlan[1].mgmt  dataQueueLen:vector  ETV
attr interpolationmode sample-hold
attr title "data queue length, vector"
1010	1458743 12 0 0 0 0 1 0 0 0 0
vector 1020  Mobility_Aware_Cross_Layer_Routing_Approach_MACARON_NW.Mobilenode10.wlan[2].mgmt  dataQueueLen:vector  ETV
attr interpolationmode sample-hold
attr title "data queue length, vector"
1020	1458854 12 0 0 0 0 1 0 0 0 0
vector 1030  Mobility_Aware_Cross_Layer_Routing_Approach_MACARON_NW.Mobilenode10.wlan[3].mgmt  dataQueueLen:vector  ETV
attr interpolationmode sample-hold
attr title "data queue length, vector"
1030	1458965 12 0 0 0 0 1 0 0 0 0
vector 1040  Mobility_Aware_Cross_Layer_Routing_Approach_MACARON_NW.Mobilenode10.wlan[4].mgmt  dataQueueLen:vector  ETV
attr interpolationmode sample-hold
attr title "data queue length, vector"
1040	1459076 12 0 0 0 0 1 0 0 0 0
vector 1050  Mobility_Aware_Cross_Layer_Routing_Approach_MACARON_NW.Mobilenode10.wlan[5].mgmt  dataQueueLen:vector  ETV
attr interpolationmode sample-hold
attr title "data queue length, vector"
1050	1459187 12 0 0 0 0 1 0 0 0 0
vector 1060  Mobility_Aware_Cross_Layer_Routing_Approach_MACARON_NW.Mobilenode10.wlan[6].mgmt  dataQueueLen:vector  ETV
attr interpolationmode sample-hold
attr title "data queue length, vector"
1060	1459298 12 0 0 0 0 1 0 0 0 0
vector 1070  Mobility_Aware_Cross_Layer_Routing_Approach_MACARON_NW.Mobilenode10.wlan[7].mgmt  dataQueueLen:vector  ETV
attr interpolationmode sample-hold
attr title "data queue length, vector"
1070	1459409 12 0 0 0 0 1 0 0 0 0
vector 1080  Mobility_Aware_Cross_Layer_Routing_Approach_MACARON_NW.Mobilenode10.wlan[8].mgmt  dataQueueLen:vector  ETV
attr interpolationmode sample-hold
attr title "data queue length, vector"
1080	1459520 12 0 0 0 0 1 0 0 0 0
vector 1090  Mobility_Aware_Cross_Layer_Routing_Approach_MACARON_NW.Mobilenode10.wlan[9].mgmt  dataQueueLen:vector  ETV
attr interpolationmode sample-hold
attr title "data queue length, vector"
1090	1459631 12 0 0 0 0 1 0 0 0 0
vector 1100  Mobility_Aware_Cross_Layer_Routing_Approach_MACARON_NW.Mobilenode11.wlan[0].mgmt  dataQueueLen:vector  ETV
attr interpolationmode sample-hold
attr title "data queue length, vector"
1100	1459742 12 0 0 0 0 1 0 0 0 0
vector 1110  Mobility_Aware_Cross_Layer_Routing_Approach_MACARON_NW.Mobilenode11.wlan[1].mgmt  dataQueueLen:vector  ETV
attr interpolationmode sample-hold
attr title "data queue length, vector"
1110	1459796 12 0 0 0 0 1 0 0 0 0
vector 1120  Mobility_Aware_Cross_Layer_Routing_Approach_MACARON_NW.Mobilenode11.wlan[2].mgmt  dataQueueLen:vector  ETV
attr interpolationmode sample-hold
attr title "data queue length, vector"
1120	1459850 12 0 0 0 0 1 0 0 0 0
vector 1130  Mobility_Aware_Cross_Layer_Routing_Approach_MACARON_NW.Mobilenode11.wlan[3].mgmt  dataQueueLen:vector  ETV
attr interpolationmode sample-hold
attr title "data queue length, vector"
1130	1459904 12 0 0 0 0 1 0 0 0 0
vector 1140  Mobility_Aware_Cross_Layer_Routing_Approach_MACARON_NW.Mobilenode11.wlan[4].mgmt  dataQueueLen:vector  ETV
attr interpolationmode sample-hold
attr title "data queue length, vector"
1140	1459958 12 0 0 0 0 1 0 0 0 0
vector 1150  Mobility_Aware_Cross_Layer_Routing_Approach_MACARON_NW.Mobilenode11.wlan[5].mgmt  dataQueueLen:vector  ETV
attr interpolationmode sample-hold
attr title "data queue length, vector"
1150	1460012 12 0 0 0 0 1 0 0 0 0
vector 1160  Mobility_Aware_Cross_Layer_Routing_Approach_MACARON_NW.Mobilenode11.wlan[6].mgmt  dataQueueLen:vector  ETV
attr interpolationmode sample-hold
attr title "data queue length, vector"
1160	1460066 12 0 0 0 0 1 0 0 0 0
vector 1170  Mobility_Aware_Cross_Layer_Routing_Approach_MACARON_NW.Mobilenode11.wlan[7].mgmt  dataQueueLen:vector  ETV
attr interpolationmode sample-hold
attr title "data queue length, vector"
1170	1460120 12 0 0 0 0 1 0 0 0 0
vector 1180  Mobility_Aware_Cross_Layer_Routing_Approach_MACARON_NW.Mobilenode11.wlan[8].mgmt  dataQueueLen:vector  ETV
attr interpolationmode sample-hold
attr title "data queue length, vector"
1180	1460174 12 0 0 0 0 1 0 0 0 0
vector 1190  Mobility_Aware_Cross_Layer_Routing_Approach_MACARON_NW.Mobilenode11.wlan[9].mgmt  dataQueueLen:vector  ETV
attr interpolationmode sample-hold
attr title "data queue length, vector"
1190	1460228 12 0 0 0 0 1 0 0 0 0
vector 1200  Mobility_Aware_Cross_Layer_Routing_Approach_MACARON_NW.Mobilenode12.wlan[0].mgmt  dataQueueLen:vector  ETV
attr interpolationmode sample-hold
attr title "data queue length, vector"
1200	1460282 12 0 0 0 0 1 0 0 0 0
vector 1210  Mobility_Aware_Cross_Layer_Routing_Approach_MACARON_NW.Mobilenode12.wlan[1].mgmt  dataQueueLen:vector  ETV
attr interpolationmode sample-hold
attr title "data queue length, vector"
1210	1460364 12 0 0 0 0 1 0 0 0 0
vector 1220  Mobility_Aware_Cross_Layer_Routing_Approach_MACARON_NW.Mobilenode12.wlan[2].mgmt  dataQueueLen:vector  ETV
attr interpolationmode sample-hold
attr title "data queue length, vector"
1220	1460446 12 0 0 0 0 1 0 0 0 0
vector 1230  Mobility_Aware_Cross_Layer_Routing_Approach_MACARON_NW.Mobilenode12.wlan[3].mgmt  dataQueueLen:vector  ETV
attr interpolationmode sample-hold
attr title "data queue length, vector"
1230	1460528 12 0 0 0 0 1 0 0 0 0
vector 1240  Mobility_Aware_Cross_Layer_Routing_Approach_MACARON_NW.Mobilenode12.wlan[4].mgmt  dataQueueLen:vector  ETV
attr interpolationmode sample-hold
attr title "data queue length, vector"
1240	1460610 12 0 0 0 0 1 0 0 0 0
vector 1250  Mobility_Aware_Cross_Layer_Routing_Approach_MACARON_NW.Mobilenode12.wlan[5].mgmt  dataQueueLen:vector  ETV
attr interpolationmode sample-hold
attr title "data queue length, vector"
1250	1460692 12 0 0 0 0 1 0 0 0 0
vector 1260  Mobility_Aware_Cross_Layer_Routing_Approach_MACARON_NW.Mobilenode12.wlan[6].mgmt  dataQueueLen:vector  ETV
attr interpolationmode sample-hold
attr title "data queue length, vector"
1260	1460774 12 0 0 0 0 1 0 0 0 0
vector 1270  Mobility_Aware_Cross_Layer_Routing_Approach_MACARON_NW.Mobilenode12.wlan[7].mgmt  dataQueueLen:vector  ETV
attr interpolationmode sample-hold
attr title "data queue length, vector"
1270	1460856 12 0 0 0 0 1 0 0 0 0
vector 1280  Mobility_Aware_Cross_Layer_Routing_Approach_MACARON_NW.Mobilenode12.wlan[8].mgmt  dataQueueLen:vector  ETV
attr interpolationmode sample-hold
attr title "data queue length, vector"
1280	1460938 12 0 0 0 0 1 0 0 0 0
vector 1290  Mobility_Aware_Cross_Layer_Routing_Approach_MACARON_NW.Mobilenode12.wlan[9].mgmt  dataQueueLen:vector  ETV
attr interpolationmode sample-hold
attr title "data queue length, vector"
1290	1461020 12 0 0 0 0 1 0 0 0 0